# vtk DataFile Version 3.0
vtk output
ASCII
DATASET UNSTRUCTURED_GRID
POINTS 3750 float
1.500000e+00	1.000000e+00	0.0	1.479592e+00	1.000000e+00	0.0	1.459184e+00	1.000000e+00	0.0	1.438776e+00	1.000000e+00	0.0	1.418367e+00	1.000000e+00	0.0	1.397959e+00	1.000000e+00	0.0	1.377551e+00	1.000000e+00	0.0	1.357143e+00	1.000000e+00	0.0	1.336735e+00	1.000000e+00	0.0	1.316327e+00	1.000000e+00	0.0	1.295918e+00	1.000000e+00	0.0	1.275510e+00	1.000000e+00	0.0	1.255102e+00	1.000000e+00	0.0	1.234694e+00	1.000000e+00	0.0	1.214286e+00	1.000000e+00	0.0	1.193878e+00	1.000000e+00	0.0	1.173469e+00	1.000000e+00	0.0	1.153061e+00	1.000000e+00	0.0	1.132653e+00	1.000000e+00	0.0	1.112245e+00	1.000000e+00	0.0	1.091837e+00	1.000000e+00	0.0	1.071429e+00	1.000000e+00	0.0	1.051020e+00	1.000000e+00	0.0	1.030612e+00	1.000000e+00	0.0	1.010204e+00	1.000000e+00	0.0	9.897959e-01	1.000000e+00	0.0	9.693878e-01	1.000000e+00	0.0	9.489796e-01	1.000000e+00	0.0	9.285714e-01	1.000000e+00	0.0	9.081633e-01	1.000000e+00	0.0	8.877551e-01	1.000000e+00	0.0	8.673469e-01	1.000000e+00	0.0	8.469388e-01	1.000000e+00	0.0	8.265306e-01	1.000000e+00	0.0	8.061224e-01	1.000000e+00	0.0	7.857143e-01	1.000000e+00	0.0	7.653061e-01	1.000000e+00	0.0	7.448980e-01	1.000000e+00	0.0	7.244898e-01	1.000000e+00	0.0	7.040816e-01	1.000000e+00	0.0	6.836735e-01	1.000000e+00	0.0	6.632653e-01	1.000000e+00	0.0	6.428571e-01	1.000000e+00	0.0	6.224490e-01	1.000000e+00	0.0	6.020408e-01	1.000000e+00	0.0	5.816327e-01	1.000000e+00	0.0	5.612245e-01	1.000000e+00	0.0	5.408163e-01	1.000000e+00	0.0	5.204082e-01	1.000000e+00	0.0	5.000000e-01	1.000000e+00	0.0	4.800000e-01	1.000000e+00	0.0	4.600000e-01	1.000000e+00	0.0	4.400000e-01	1.000000e+00	0.0	4.200000e-01	1.000000e+00	0.0	4.000000e-01	1.000000e+00	0.0	3.800000e-01	1.000000e+00	0.0	3.600000e-01	1.000000e+00	0.0	3.400000e-01	1.000000e+00	0.0	3.200000e-01	1.000000e+00	0.0	3.000000e-01	1.000000e+00	0.0	2.800000e-01	1.000000e+00	0.0	2.600000e-01	1.000000e+00	0.0	2.400000e-01	1.000000e+00	0.0	2.200000e-01	1.000000e+00	0.0	2.000000e-01	1.000000e+00	0.0	1.800000e-01	1.000000e+00	0.0	1.600000e-01	1.000000e+00	0.0	1.400000e-01	1.000000e+00	0.0	1.200000e-01	1.000000e+00	0.0	1.000000e-01	1.000000e+00	0.0	8.000000e-02	1.000000e+00	0.0	6.000000e-02	1.000000e+00	0.0	4.000000e-02	1.000000e+00	0.0	2.000000e-02	1.000000e+00	0.0	0.000000e+00	1.000000e+00	0.0	1.500000e+00	9.831903e-01	0.0	1.479592e+00	9.831169e-01	0.0	1.459184e+00	9.830435e-01	0.0	1.438776e+00	9.829700e-01	0.0	1.418367e+00	9.828966e-01	0.0	1.397959e+00	9.828232e-01	0.0	1.377551e+00	9.827497e-01	0.0	1.357143e+00	9.826763e-01	0.0	1.336735e+00	9.826028e-01	0.0	1.316327e+00	9.825294e-01	0.0	1.295918e+00	9.824560e-01	0.0	1.275510e+00	9.823825e-01	0.0	1.255102e+00	9.823091e-01	0.0	1.234694e+00	9.822356e-01	0.0	1.214286e+00	9.821622e-01	0.0	1.193878e+00	9.820888e-01	0.0	1.173469e+00	9.820153e-01	0.0	1.153061e+00	9.819419e-01	0.0	1.132653e+00	9.818684e-01	0.0	1.112245e+00	9.817950e-01	0.0	1.091837e+00	9.817216e-01	0.0	1.071429e+00	9.816481e-01	0.0	1.051020e+00	9.815747e-01	0.0	1.030612e+00	9.815013e-01	0.0	1.010204e+00	9.814278e-01	0.0	9.897959e-01	9.813544e-01	0.0	9.693878e-01	9.812809e-01	0.0	9.489796e-01	9.812075e-01	0.0	9.285714e-01	9.811341e-01	0.0	9.081633e-01	9.810606e-01	0.0	8.877551e-01	9.809872e-01	0.0	8.673469e-01	9.809137e-01	0.0	8.469388e-01	9.808403e-01	0.0	8.265306e-01	9.807669e-01	0.0	8.061224e-01	9.806934e-01	0.0	7.857143e-01	9.806200e-01	0.0	7.653061e-01	9.805465e-01	0.0	7.448980e-01	9.804731e-01	0.0	7.244898e-01	9.803997e-01	0.0	7.040816e-01	9.803262e-01	0.0	6.836735e-01	9.802528e-01	0.0	6.632653e-01	9.801793e-01	0.0	6.428571e-01	9.801059e-01	0.0	6.224490e-01	9.800325e-01	0.0	6.020408e-01	9.799590e-01	0.0	5.816327e-01	9.798856e-01	0.0	5.612245e-01	9.798122e-01	0.0	5.408163e-01	9.797387e-01	0.0	5.204082e-01	9.796653e-01	0.0	5.000000e-01	9.795918e-01	0.0	4.800000e-01	9.795918e-01	0.0	4.600000e-01	9.795918e-01	0.0	4.400000e-01	9.795918e-01	0.0	4.200000e-01	9.795918e-01	0.0	4.000000e-01	9.795918e-01	0.0	3.800000e-01	9.795918e-01	0.0	3.600000e-01	9.795918e-01	0.0	3.400000e-01	9.795918e-01	0.0	3.200000e-01	9.795918e-01	0.0	3.000000e-01	9.795918e-01	0.0	2.800000e-01	9.795918e-01	0.0	2.600000e-01	9.795918e-01	0.0	2.400000e-01	9.795918e-01	0.0	2.200000e-01	9.795918e-01	0.0	2.000000e-01	9.795918e-01	0.0	1.800000e-01	9.795918e-01	0.0	1.600000e-01	9.795918e-01	0.0	1.400000e-01	9.795918e-01	0.0	1.200000e-01	9.795918e-01	0.0	1.000000e-01	9.795918e-01	0.0	8.000000e-02	9.795918e-01	0.0	6.000000e-02	9.795918e-01	0.0	4.000000e-02	9.795918e-01	0.0	2.000000e-02	9.795918e-01	0.0	0.000000e+00	9.795918e-01	0.0	1.500000e+00	9.663807e-01	0.0	1.479592e+00	9.662338e-01	0.0	1.459184e+00	9.660869e-01	0.0	1.438776e+00	9.659401e-01	0.0	1.418367e+00	9.657932e-01	0.0	1.397959e+00	9.656463e-01	0.0	1.377551e+00	9.654994e-01	0.0	1.357143e+00	9.653525e-01	0.0	1.336735e+00	9.652057e-01	0.0	1.316327e+00	9.650588e-01	0.0	1.295918e+00	9.649119e-01	0.0	1.275510e+00	9.647650e-01	0.0	1.255102e+00	9.646182e-01	0.0	1.234694e+00	9.644713e-01	0.0	1.214286e+00	9.643244e-01	0.0	1.193878e+00	9.641775e-01	0.0	1.173469e+00	9.640306e-01	0.0	1.153061e+00	9.638838e-01	0.0	1.132653e+00	9.637369e-01	0.0	1.112245e+00	9.635900e-01	0.0	1.091837e+00	9.634431e-01	0.0	1.071429e+00	9.632963e-01	0.0	1.051020e+00	9.631494e-01	0.0	1.030612e+00	9.630025e-01	0.0	1.010204e+00	9.628556e-01	0.0	9.897959e-01	9.627087e-01	0.0	9.693878e-01	9.625619e-01	0.0	9.489796e-01	9.624150e-01	0.0	9.285714e-01	9.622681e-01	0.0	9.081633e-01	9.621212e-01	0.0	8.877551e-01	9.619744e-01	0.0	8.673469e-01	9.618275e-01	0.0	8.469388e-01	9.616806e-01	0.0	8.265306e-01	9.615337e-01	0.0	8.061224e-01	9.613868e-01	0.0	7.857143e-01	9.612400e-01	0.0	7.653061e-01	9.610931e-01	0.0	7.448980e-01	9.609462e-01	0.0	7.244898e-01	9.607993e-01	0.0	7.040816e-01	9.606525e-01	0.0	6.836735e-01	9.605056e-01	0.0	6.632653e-01	9.603587e-01	0.0	6.428571e-01	9.602118e-01	0.0	6.224490e-01	9.600649e-01	0.0	6.020408e-01	9.599181e-01	0.0	5.816327e-01	9.597712e-01	0.0	5.612245e-01	9.596243e-01	0.0	5.408163e-01	9.594774e-01	0.0	5.204082e-01	9.593306e-01	0.0	5.000000e-01	9.591837e-01	0.0	4.800000e-01	9.591837e-01	0.0	4.600000e-01	9.591837e-01	0.0	4.400000e-01	9.591837e-01	0.0	4.200000e-01	9.591837e-01	0.0	4.000000e-01	9.591837e-01	0.0	3.800000e-01	9.591837e-01	0.0	3.600000e-01	9.591837e-01	0.0	3.400000e-01	9.591837e-01	0.0	3.200000e-01	9.591837e-01	0.0	3.000000e-01	9.591837e-01	0.0	2.800000e-01	9.591837e-01	0.0	2.600000e-01	9.591837e-01	0.0	2.400000e-01	9.591837e-01	0.0	2.200000e-01	9.591837e-01	0.0	2.000000e-01	9.591837e-01	0.0	1.800000e-01	9.591837e-01	0.0	1.600000e-01	9.591837e-01	0.0	1.400000e-01	9.591837e-01	0.0	1.200000e-01	9.591837e-01	0.0	1.000000e-01	9.591837e-01	0.0	8.000000e-02	9.591837e-01	0.0	6.000000e-02	9.591837e-01	0.0	4.000000e-02	9.591837e-01	0.0	2.000000e-02	9.591837e-01	0.0	0.000000e+00	9.591837e-01	0.0	1.500000e+00	9.495710e-01	0.0	1.479592e+00	9.493507e-01	0.0	1.459184e+00	9.491304e-01	0.0	1.438776e+00	9.489101e-01	0.0	1.418367e+00	9.486898e-01	0.0	1.397959e+00	9.484695e-01	0.0	1.377551e+00	9.482491e-01	0.0	1.357143e+00	9.480288e-01	0.0	1.336735e+00	9.478085e-01	0.0	1.316327e+00	9.475882e-01	0.0	1.295918e+00	9.473679e-01	0.0	1.275510e+00	9.471476e-01	0.0	1.255102e+00	9.469272e-01	0.0	1.234694e+00	9.467069e-01	0.0	1.214286e+00	9.464866e-01	0.0	1.193878e+00	9.462663e-01	0.0	1.173469e+00	9.460460e-01	0.0	1.153061e+00	9.458257e-01	0.0	1.132653e+00	9.456053e-01	0.0	1.112245e+00	9.453850e-01	0.0	1.091837e+00	9.451647e-01	0.0	1.071429e+00	9.449444e-01	0.0	1.051020e+00	9.447241e-01	0.0	1.030612e+00	9.445038e-01	0.0	1.010204e+00	9.442834e-01	0.0	9.897959e-01	9.440631e-01	0.0	9.693878e-01	9.438428e-01	0.0	9.489796e-01	9.436225e-01	0.0	9.285714e-01	9.434022e-01	0.0	9.081633e-01	9.431818e-01	0.0	8.877551e-01	9.429615e-01	0.0	8.673469e-01	9.427412e-01	0.0	8.469388e-01	9.425209e-01	0.0	8.265306e-01	9.423006e-01	0.0	8.061224e-01	9.420803e-01	0.0	7.857143e-01	9.418599e-01	0.0	7.653061e-01	9.416396e-01	0.0	7.448980e-01	9.414193e-01	0.0	7.244898e-01	9.411990e-01	0.0	7.040816e-01	9.409787e-01	0.0	6.836735e-01	9.407584e-01	0.0	6.632653e-01	9.405380e-01	0.0	6.428571e-01	9.403177e-01	0.0	6.224490e-01	9.400974e-01	0.0	6.020408e-01	9.398771e-01	0.0	5.816327e-01	9.396568e-01	0.0	5.612245e-01	9.394365e-01	0.0	5.408163e-01	9.392161e-01	0.0	5.204082e-01	9.389958e-01	0.0	5.000000e-01	9.387755e-01	0.0	4.800000e-01	9.387755e-01	0.0	4.600000e-01	9.387755e-01	0.0	4.400000e-01	9.387755e-01	0.0	4.200000e-01	9.387755e-01	0.0	4.000000e-01	9.387755e-01	0.0	3.800000e-01	9.387755e-01	0.0	3.600000e-01	9.387755e-01	0.0	3.400000e-01	9.387755e-01	0.0	3.200000e-01	9.387755e-01	0.0	3.000000e-01	9.387755e-01	0.0	2.800000e-01	9.387755e-01	0.0	2.600000e-01	9.387755e-01	0.0	2.400000e-01	9.387755e-01	0.0	2.200000e-01	9.387755e-01	0.0	2.000000e-01	9.387755e-01	0.0	1.800000e-01	9.387755e-01	0.0	1.600000e-01	9.387755e-01	0.0	1.400000e-01	9.387755e-01	0.0	1.200000e-01	9.387755e-01	0.0	1.000000e-01	9.387755e-01	0.0	8.000000e-02	9.387755e-01	0.0	6.000000e-02	9.387755e-01	0.0	4.000000e-02	9.387755e-01	0.0	2.000000e-02	9.387755e-01	0.0	0.000000e+00	9.387755e-01	0.0	1.500000e+00	9.327614e-01	0.0	1.479592e+00	9.324676e-01	0.0	1.459184e+00	9.321739e-01	0.0	1.438776e+00	9.318801e-01	0.0	1.418367e+00	9.315864e-01	0.0	1.397959e+00	9.312926e-01	0.0	1.377551e+00	9.309989e-01	0.0	1.357143e+00	9.307051e-01	0.0	1.336735e+00	9.304113e-01	0.0	1.316327e+00	9.301176e-01	0.0	1.295918e+00	9.298238e-01	0.0	1.275510e+00	9.295301e-01	0.0	1.255102e+00	9.292363e-01	0.0	1.234694e+00	9.289426e-01	0.0	1.214286e+00	9.286488e-01	0.0	1.193878e+00	9.283550e-01	0.0	1.173469e+00	9.280613e-01	0.0	1.153061e+00	9.277675e-01	0.0	1.132653e+00	9.274738e-01	0.0	1.112245e+00	9.271800e-01	0.0	1.091837e+00	9.268863e-01	0.0	1.071429e+00	9.265925e-01	0.0	1.051020e+00	9.262988e-01	0.0	1.030612e+00	9.260050e-01	0.0	1.010204e+00	9.257112e-01	0.0	9.897959e-01	9.254175e-01	0.0	9.693878e-01	9.251237e-01	0.0	9.489796e-01	9.248300e-01	0.0	9.285714e-01	9.245362e-01	0.0	9.081633e-01	9.242425e-01	0.0	8.877551e-01
[...]
POINT_DATA 3750

SCALARS Conservative_1 float 1
LOOKUP_TABLE default
1.161159e+00	1.161206e+00	1.161265e+00	1.161233e+00	1.161177e+00	1.161193e+00	1.161221e+00	1.161196e+00	1.161213e+00	1.161201e+00	1.161207e+00	1.161204e+00	1.161206e+00	1.161205e+00	1.161205e+00	1.161206e+00	1.161205e+00	1.161206e+00	1.161205e+00	1.161206e+00	1.161205e+00	1.161206e+00	1.161205e+00	1.161206e+00	1.161205e+00	1.161206e+00	1.161206e+00	1.161206e+00	1.161206e+00	1.161206e+00	1.161206e+00	1.161206e+00	1.161206e+00	1.161206e+00	1.161206e+00	1.161206e+00	1.161206e+00	1.161206e+00	1.161206e+00	1.161206e+00	1.161206e+00	1.161206e+00	1.161206e+00	1.161206e+00	1.161206e+00	1.161206e+00	1.161206e+00	1.161206e+00	1.161206e+00	1.161206e+00	1.161206e+00	1.161206e+00	1.161206e+00	1.161206e+00	1.161206e+00	1.161206e+00	1.161206e+00	1.161206e+00	1.161206e+00	1.161206e+00	1.161206e+00	1.161206e+00	1.161206e+00	1.161206e+00	1.161206e+00	1.161206e+00	1.161206e+00	1.161206e+00	1.161206e+00	1.161206e+00	1.161206e+00	1.161206e+00	1.161206e+00	1.161206e+00	1.161206e+00	1.161164e+00	1.161176e+00	1.161223e+00	1.161237e+00	1.161198e+00	1.161187e+00	1.161223e+00	1.161194e+00	1.161213e+00	1.161201e+00	1.161208e+00	1.161204e+00	1.161206e+00	1.161205e+00	1.161205e+00	1.161206e+00	1.161205e+00	1.161206e+00	1.161205e+00	1.161206e+00	1.161205e+00	1.161206e+00	1.161205e+00	1.161206e+00	1.161205e+00	1.161206e+00	1.161205e+00	1.161206e+00	1.161206e+00	1.161206e+00	1.161206e+00	1.161206e+00	1.161206e+00	1.161206e+00	1.161206e+00	1.161206e+00	1.161206e+00	1.161206e+00	1.161206e+00	1.161206e+00	1.161206e+00	1.161206e+00	1.161206e+00	1.161206e+00	1.161206e+00	1.161206e+00	1.161206e+00	1.161206e+00	1.161206e+00	1.161206e+00	1.161206e+00	1.161206e+00	1.161206e+00	1.161206e+00	1.161206e+00	1.161206e+00	1.161206e+00	1.161206e+00	1.161206e+00	1.161206e+00	1.161206e+00	1.161206e+00	1.161206e+00	1.161206e+00	1.161206e+00	1.161206e+00	1.161206e+00	1.161206e+00	1.161206e+00	1.161206e+00	1.161206e+00	1.161206e+00	1.161206e+00	1.161206e+00	1.161206e+00	1.161176e+00	1.161114e+00	1.161136e+00	1.161252e+00	1.161252e+00	1.161164e+00	1.161229e+00	1.161189e+00	1.161214e+00	1.161202e+00	1.161208e+00	1.161204e+00	1.161206e+00	1.161206e+00	1.161205e+00	1.161206e+00	1.161205e+00	1.161206e+00	1.161205e+00	1.161206e+00	1.161205e+00	1.161206e+00	1.161205e+00	1.161206e+00	1.161205e+00	1.161206e+00	1.161205e+00	1.161206e+00	1.161206e+00	1.161206e+00	1.161206e+00	1.161206e+00	1.161206e+00	1.161206e+00	1.161206e+00	1.161206e+00	1.161206e+00	1.161206e+00	1.161206e+00	1.161206e+00	1.161206e+00	1.161206e+00	1.161206e+00	1.161206e+00	1.161206e+00	1.161206e+00	1.161206e+00	1.161206e+00	1.161206e+00	1.161206e+00	1.161206e+00	1.161206e+00	1.161206e+00	1.161206e+00	1.161206e+00	1.161206e+00	1.161206e+00	1.161206e+00	1.161206e+00	1.161206e+00	1.161206e+00	1.161206e+00	1.161206e+00	1.161206e+00	1.161206e+00	1.161206e+00	1.161206e+00	1.161206e+00	1.161206e+00	1.161206e+00	1.161206e+00	1.161206e+00	1.161206e+00	1.161206e+00	1.161206e+00	1.161333e+00	1.161167e+00	1.161000e+00	1.161160e+00	1.161339e+00	1.161147e+00	1.161239e+00	1.161186e+00	1.161211e+00	1.161203e+00	1.161207e+00	1.161206e+00	1.161204e+00	1.161207e+00	1.161204e+00	1.161206e+00	1.161205e+00	1.161206e+00	1.161205e+00	1.161206e+00	1.161205e+00	1.161206e+00	1.161205e+00	1.161206e+00	1.161205e+00	1.161206e+00	1.161205e+00	1.161206e+00	1.161206e+00	1.161206e+00	1.161206e+00	1.161206e+00	1.161206e+00	1.161206e+00	1.161206e+00	1.161206e+00	1.161206e+00	1.161206e+00	1.161206e+00	1.161206e+00	1.161206e+00	1.161206e+00	1.161206e+00	1.161206e+00	1.161206e+00	1.161206e+00	1.161206e+00	1.161206e+00	1.161206e+00	1.161206e+00	1.161206e+00	1.161206e+00	1.161206e+00	1.161206e+00	1.161206e+00	1.161206e+00	1.161206e+00	1.161206e+00	1.161206e+00	1.161206e+00	1.161206e+00	1.161206e+00	1.161206e+00	1.161206e+00	1.161206e+00	1.161206e+00	1.161206e+00	1.161206e+00	1.161206e+00	1.161206e+00	1.161206e+00	1.161206e+00	1.161206e+00	1.161206e+00	1.161206e+00	1.161633e+00	1.161530e+00	1.161032e+00	1.160873e+00	1.161405e+00	1.161141e+00	1.161253e+00	1.161194e+00	1.161204e+00	1.161205e+00	1.161204e+00	1.161209e+00	1.161202e+00	1.161209e+00	1.161203e+00	1.161207e+00	1.161204e+00	1.161207e+00	1.161205e+00	1.161206e+00	1.161205e+00	1.161206e+00	1.161205e+00	1.161206e+00	1.161205e+00	1.161206e+00	1.161205e+00	1.161206e+00	1.161206e+00	1.161206e+00	1.161206e+00	1.161206e+00	1.161206e+00	1.161206e+00	1.161206e+00	1.161206e+00	1.161206e+00	1.161206e+00	1.161206e+00	1.161206e+00	1.161206e+00	1.161206e+00	1.161206e+00	1.161206e+00	1.161206e+00	1.161206e+00	1.161206e+00	1.161206e+00	1.161206e+00	1.161206e+00	1.161206e+00	1.161206e+00	1.161206e+00	1.161206e+00	1.161206e+00	1.161206e+00	1.161206e+00	1.161206e+00	1.161206e+00	1.161206e+00	1.161206e+00	1.161206e+00	1.161206e+00	1.161206e+00	1.161206e+00	1.161206e+00	1.161206e+00	1.161206e+00	1.161206e+00	1.161206e+00	1.161206e+00	1.161206e+00	1.161206e+00	1.161206e+00	1.161206e+00	1.161590e+00	1.162088e+00	1.161688e+00	1.160491e+00	1.161364e+00	1.161125e+00	1.161247e+00	1.161225e+00	1.161196e+00	1.161211e+00	1.161195e+00	1.161215e+00	1.161198e+00	1.161211e+00	1.161201e+00	1.161209e+00	1.161203e+00	1.161207e+00	1.161205e+00	1.161206e+00	1.161205e+00	1.161206e+00	1.161205e+00	1.161206e+00	1.161205e+00	1.161206e+00	1.161205e+00	1.161206e+00	1.161205e+00	1.161206e+00	1.161206e+00	1.161206e+00	1.161206e+00	1.161206e+00	1.161206e+00	1.161206e+00	1.161206e+00	1.161206e+00	1.161206e+00	1.161206e+00	1.161206e+00	1.161206e+00	1.161206e+00	1.161206e+00	1.161206e+00	1.161206e+00	1.161206e+00	1.161206e+00	1.161206e+00	1.161206e+00	1.161206e+00	1.161206e+00	1.161206e+00	1.161206e+00	1.161206e+00	1.161206e+00	1.161206e+00	1.161206e+00	1.161206e+00	1.161206e+00	1.161206e+00	1.161206e+00	1.161206e+00	1.161206e+00	1.161206e+00	1.161206e+00	1.161206e+00	1.161206e+00	1.161206e+00	1.161206e+00	1.161206e+00	1.161206e+00	1.161206e+00	1.161206e+00	1.161206e+00	1.160138e+00	1.161729e+00	1.163240e+00	1.160472e+00	1.161217e+00	1.161096e+00	1.161161e+00	1.161276e+00	1.161188e+00	1.161231e+00	1.161178e+00	1.161224e+00	1.161192e+00	1.161215e+00	1.161199e+00	1.161210e+00	1.161202e+00	1.161208e+00	1.161204e+00	1.161206e+00	1.161205e+00	1.161206e+00	1.161205e+00	1.161206e+00	1.161205e+00	1.161206e+00	1.161205e+00	1.161206e+00	1.161205e+00	1.161206e+00	1.161206e+00	1.161206e+00	1.161206e+00	1.161206e+00	1.161206e+00	1.161206e+00	1.161206e+00	1.161206e+00	1.161206e+00	1.161206e+00	1.161206e+00	1.161206e+00	1.161206e+00	1.161206e+00	1.161206e+00	1.161206e+00	1.161206e+00	1.161206e+00	1.161206e+00	1.161206e+00	1.161206e+00	1.161206e+00	1.161206e+00	1.161206e+00	1.161206e+00	1.161206e+00	1.161206e+00	1.161206e+00	1.161206e+00	1.161206e+00	1.161206e+00	1.161206e+00	1.161206e+00	1.161206e+00	1.161206e+00	1.161206e+00	1.161206e+00	1.161206e+00	1.161206e+00	1.161206e+00	1.161206e+00	1.161206e+00	1.161206e+00	1.161206e+00	1.161206e+00	1.157055e+00	1.158120e+00	1.164664e+00	1.161392e+00	1.161171e+00	1.161198e+00	1.160933e+00	1.161307e+00	1.161161e+00	1.161276e+00	1.161159e+00	1.161235e+00	1.161184e+00	1.161219e+00	1.161196e+00	1.161212e+00	1.161202e+00	1.161208e+00	1.161204e+00	1.161207e+00	1.161205e+00	1.161206e+00	1.161205e+00	1.161206e+00	1.161205e+00	1.161206e+00	1.161205e+00	1.161206e+00	1.161205e+00	1.161206e+00	1.161206e+00	1.161206e+00	1.161206e+00	1.161206e+00	1.161206e+00	1.161206e+00	1.161206e+00	1.161206e+00	1.161206e+00	1.161206e+00	1.161206e+00	1.161206e+00	1.161206e+00	1.161206e+00	1.161206e+00	1.161206e+00	1.161206e+00	1.161206e+00	1.161206e+00	1.161206e+00	1.161206e+00	1.161206e+00	1.161206e+00	1.161206e+00	1.161206e+00	1.161206e+00	1.161206e+00	1.161206e+00	1.161206e+00	1.161206e+00	1.161206e+00	1.161206e+00	1.161206e+00	1.161206e+00	1.161206e+00	1.161206e+00	1.161206e+00	1.161206e+00	1.161206e+00	1.161206e+00	1.161206e+00	1.161206e+00	1.161206e+00	1.161206e+00	1.161206e+00	1.157561e+00	1.150217e+00	1.162714e+00	1.162952e+00	1.161349e+00	1.161818e+00	1.160669e+00	1.161283e+00	1.161064e+00	1.161335e+00	1.161147e+00	1.161250e+00	1.161177e+00	1.161222e+00	1.161193e+00	1.161213e+00	1.161201e+00	1.161209e+00	1.161203e+00	1.161207e+00	1.161205e+00	1.161206e+00	1.161205e+00	1.161206e+00	1.161205e+00	1.161206e+00	1.161205e+00	1.161206e+00	1.161205e+00	1.161206e+00	1.161206e+00	1.161206e+00	1.161206e+00	1.161206e+00	1.161206e+00	1.161206e+00	1.161206e+00	1.161206e+00	1.161206e+00	1.161206e+00	1.161206e+00	1.161206e+00	1.161206e+00	1.161206e+00	1.161206e+00	1.161206e+00	1.161206e+00	1.161206e+00	1.161206e+00	1.161206e+00	1.161206e+00	1.161206e+00	1.161206e+00	1.161206e+00	1.161206e+00	1.161206e+00	1.161206e+00	1.161206e+00	1.161206e+00	1.161206e+00	1.161206e+00	1.161206e+00	1.161206e+00	1.161206e+00	1.161206e+00	1.161206e+00	1.161206e+00	1.161206e+00	1.161206e+00	1.161206e+00	1.161206e+00	1.161206e+00	1.161206e+00	1.161206e+00	1.161206e+00	1.178689e+00	1.145274e+00	1.154049e+00	1.163031e+00	1.160868e+00	1.163158e+00	1.160773e+00	1.161307e+00	1.160872e+00	1.161344e+00	1.161139e+00	1.161267e+00	1.161176e+00	1.161226e+00	1.161191e+00	1.161213e+00	1.161201e+00	1.161209e+00	1.161203e+00	1.161207e+00	1.161205e+00	1.161206e+00	1.161205e+00	1.161206e+00	1.161205e+00	1.161206e+00	1.161205e+00	1.161206e+00	1.161205e+00	1.161206e+00	1.161206e+00	1.161206e+00	1.161206e+00	1.161206e+00	1.161206e+00	1.161206e+00	1.161206e+00	1.161206e+00	1.161206e+00	1.161206e+00	1.161206e+00	1.161206e+00	1.161206e+00	1.161206e+00	1.161206e+00	1.161206e+00	1.161206e+00	1.161206e+00	1.161206e+00	1.161206e+00	1.161206e+00	1.161206e+00	1.161206e+00	1.161206e+00	1.161206e+00	1.161206e+00	1.161206e+00	1.161206e+00	1.161206e+00	1.161206e+00	1.161206e+00	1.161206e+00	1.161206e+00	1.161206e+00	1.161206e+00	1.161206e+00	1.161206e+00	1.161206e+00	1.161206e+00	1.161206e+00	1.161206e+00	1.161206e+00	1.161206e+00	1.161206e+00	1.161206e+00	1.251050e+00	1.170104e+00	1.143944e+00	1.159587e+00	1.157476e+00	1.163909e+00	1.161651e+00	1.161674e+00	1.160766e+00	1.161240e+00	1.161111e+00	1.161267e+00	1.161186e+00	1.161231e+00	1.161193e+00	1.161210e+00	1.161200e+00	1.161209e+00	1.161204e+00	1.161207e+00	1.161205e+00	1.161206e+00	1.161205e+00	1.161206e+00	1.161205e+00	1.161206e+00	1.161205e+00	1.161206e+00	1.161205e+00	1.161206e+00	1.161206e+00	1.161206e+00	1.161206e+00	1.161206e+00	1.161206e+00	1.161206e+00	1.161206e+00	1.161206e+00	1.161206e+00	1.161206e+00	1.161206e+00	1.161206e+00	1.161206e+00	1.161206e+00	1.161206e+00	1.161206e+00	1.161206e+00	1.161206e+00	1.161206e+00	1.161206e+00	1.161206e+00	1.161206e+00	1.161206e+00	1.161206e+00	1.161206e+00	1.161206e+00	1.161206e+00	1.161206e+00	1.161206e+00	1.161206e+00	1.161206e+00	1.161206e+00	1.161206e+00	1.161206e+00	1.161206e+00	1.161206e+00	1.161206e+00	1.161206e+00	1.161206e+00	1.161206e+00	1.161206e+00	1.161206e+00	1.161206e+00	1.161206e+00	1.161206e+00	1.416467e+00	1.270913e+00	1.156931e+00	1.156539e+00	1.151418e+00	1.160413e+00	1.162441e+00	1.162493e+00	1.161172e+00	1.161134e+00	1.161047e+00	1.161214e+00	1.161188e+00	1.161235e+00	1.161205e+00	1.161210e+00	1.161198e+00	1.161207e+00	1.161205e+00	1.161207e+00	1.161205e+00	1.161206e+00	1.161205e+00	1.161206e+00	1.161205e+00	1.161206e+00	1.161205e+00	1.161206e+00	1.161205e+00	1.161206e+00	1.161206e+00	1.161206e+00	1.161206e+00	1.161206e+00	1.161206e+00	1.161206e+00	1.161206e+00	1.161206e+00	1.161206e+00	1.161206e+00	1.161206e+00	1.161206e+00	1.161206e+00	1.161206e+00	1.161206e+00	1.161206e+00	1.161206e+00	1.161206e+00	1.161206e+00	1.161206e+00	1.161206e+00	1.161206e+00	1.161206e+00	1.161206e+00	1.161206e+00	1.161206e+00	1.161206e+00	1.161206e+00	1.161206e+00	1.161206e+00	1.161206e+00	1.161206e+00	1.161206e+00	1.161206e+00	1.161206e+00	1.161206e+00	1.161206e+00	1.161206e+00	1.161206e+00	1.161206e+00	1.161206e+00	1.161206e+00	1.161206e+00	1.161206e+00	1.161206e+00	1.614936e+00	1.480356e+00	1.250100e+00	1.178944e+00	1.150588e+00	1.152058e+00	1.159788e+00	1.162646e+00	1.162211e+00	1.161409e+00	1.161075e+00	1.161116e+00	1.161148e+00	1.161213e+00	1.161219e+00	1.161219e+00	1.161201e+00	1.161204e+00	1.161205e+00	1.161207e+00	1.161205e+00	1.161206e+00	1.161205e+00	1.161206e+00	1.161205e+00	1.161206e+00	1.161205e+00	1.161206e+00	1.161205e+00	1.161206e+00	1.161206e+00	1.161206e+00	1.161206e+00	1.161206e+00	1.161206e+00	1.161206e+00	1.161206e+00	1.161206e+00	1.161206e+00	1.161206e+00	1.161206e+00	1.161206e+00	1.161206e+00	1.161206e+00	1.161206e+00	1.161206e+00	1.161206e+00	1.161206e+00	1.161206e+00	1.161206e+00	1.161206e+00	1.161206e+00	1.161206e+00	1.161206e+00	1.161206e+00	1.161206e+00	1.161206e+00	1.161206e+00	1.161206e+00	1.161206e+00	1.161206e+00	1.161206e+00	1.161206e+00	1.161206e+00	1.161206e+00	1.161206e+00	1.161206e+00	1.161206e+00	1.161206e+00	1.161206e+00	1.161206e+00	1.161206e+00	1.161206e+00	1.161206e+00	1.161206e+00	1.711782e+00	1.670854e+00	1.484777e+00	1.262742e+00	1.184870e+00	1.149307e+00	1.152601e+00	1.159156e+00	1.162482e+00	1.162184e+00	1.161490e+00	1.161150e+00	1.161089e+00	1.161140e+00	1.161202e+00	1.161231e+00	1.161214e+00	1.161203e+00	1.161203e+00	1.161206e+00	1.161205e+00	1.161206e+00	1.161206e+00	1.161206e+00	1.161205e+00	1.161206e+00	1.161205e+00	1.161206e+00	1.161205e+00	1.161206e+00	1.161206e+00	1.161206e+00	1.161206e+00	1.161206e+00	1.161206e+00	1.161206e+00	1.161206e+00	1.161206e+00	1.161206e+00	1.161206e+00	1.161206e+00	1.161206e+00	1.161206e+00	1.161206e+00	1.161206e+00	1.161206e+00	1.161206e+00	1.161206e+00	1.161206e+00	1.161206e+00	1.161206e+00	1.161206e+00	1.161206e+00	1.161206e+00	1.161206e+00	1.161206e+00	1.161206e+00	1.161206e+00	1.161206e+00	1.161206e+00	1.161206e+00	1.161206e+00	1.161206e+00	1.161206e+00	1.161206e+00	1.161206e+00	1.161206e+00	1.161206e+00	1.161206e+00	1.161206e+00	1.161206e+00	1.161206e+00	1.161206e+00	1.161206e+00	1.161206e+00	1.720817e+00	1.721030e+00	1.678275e+00	1.502446e+00	1.277975e+00	1.189110e+00	1.150589e+00	1.152211e+00	1.158829e+00	1.162061e+00	1.162203e+00	1.161602e+00	1.161213e+00	1.161070e+00	1.161119e+00	1.161207e+00	1.161232e+00	1.161212e+00	1.161203e+00	1.161206e+00	1.161205e+00	1.161205e+00	1.161205e+00	1.161206e+00	1.161205e+00	1.161206e+00	1.161205e+00	1.161206e+00	1.161205e+00	1.161206e+00	1.161206e+00	1.161206e+00	1.161206e+00	1.161206e+00	1.161206e+00	1.161206e+00	1.161206e+00	1.161206e+00	1.161206e+00	1.161206e+00	1.161206e+00	1.161206e+00	1.161206e+00	1.161206e+00	1.161206e+00	1.161206e+00	1.161206e+00	1.161206e+00	1.161206e+00	1.161206e+00	1.161206e+00	1.161206e+00	1.161206e+00	1.161206e+00	1.161206e+00	1.161206e+00	1.161206e+00	1.161206e+00	1.161206e+00	1.161206e+00	1.161206e+00	1.161206e+00	1.161206e+00	1.161206e+00	1.161206e+00	1.161206e+00	1.161206e+00	1.161206e+00	1.161206e+00	1.161206e+00	1.161206e+00	1.161206e+00	1.161206e+00	1.161206e+00	1.161206e+00	1.702265e+00	1.714834e+00	1.723041e+00	1.687221e+00	1.522201e+00	1.295700e+00	1.194494e+00	1.151933e+00	1.152438e+00	1.158087e+00	1.161645e+00	1.162189e+00	1.161769e+00	1.161258e+00	1.161045e+00	1.161107e+00	1.161215e+00	1.161227e+00	1.161208e+00	1.161207e+00	1.161206e+00	1.161205e+00	1.161204e+00	1.161206e+00	1.161206e+00	1.161206e+00	1.161205e+00	1.161206e+00	1.161205e+00	1.161206e+00	1.161206e+00	1.161206e+00	1.161206e+00	1.161206e+00	1.161206e+00	1.161206e+00	1.161206e+00	1.161206e+00	1.161206e+00	1.161206e+00	1.161206e+00	1.161206e+00	1.161206e+00	1.161206e+00	1.161206e+00	1.161206e+00	1.161206e+00	1.161206e+00	1.161206e+00	1.161206e+00	1.161206e+00	1.161206e+00	1.161206e+00	1.161206e+00	1.161206e+00	1.161206e+00	1.161206e+00	1.161206e+00	1.161206e+00	1.161206e+00	1.161206e+00	1.161206e+00	1.161206e+00	1.161206e+00	1.161206e+00	1.161206e+00	1.161206e+00	1.161206e+00	1.161206e+00	1.161206e+00	1.161206e+00	1.161206e+00	1.161206e+00	1.161206e+00	1.161206e+00	1.688977e+00	1.696359e+00	1.713383e+00	1.724869e+00	1.694375e+00	1.544912e+00	1.315781e+00	1.200644e+00	1.154563e+00	1.152641e+00	1.157228e+00	1.161090e+00	1.162240e+00	1.161936e+00	1.161288e+00	1.161018e+00	1.161118e+00	1.161213e+00	1.161215e+00	1.161211e+00	1.161209e+00	1.161206e+00	1.161203e+00	1.161205e+00	1.161206e+00	1.161206e+00	1.161205e+00	1.161206e+00	1.161205e+00	1.161206e+00	1.161205e+00	1.161206e+00	1.161205e+00	1.161206e+00	1.161206e+00	1.161206e+00	1.161206e+00	1.161206e+00	1.161206e+00	1.161206e+00	1.161206e+00	1.161206e+00	1.161206e+00	1.161206e+00	1.161206e+00	1.161206e+00	1.161206e+00	1.161206e+00	1.161206e+00	1.161206e+00	1.161206e+00	1.161206e+00	1.161206e+00	1.161206e+00	1.161206e+00	1.161206e+00	1.161206e+00	1.161206e+00	1.161206e+00	1.161206e+00	1.161206e+00	1.161206e+00	1.161206e+00	1.161206e+00	1.161206e+00	1.161206e+00	1.161206e+00	1.161206e+00	1.161206e+00	1.161206e+00	1.161206e+00	1.161206e+00	1.161206e+00	1.161206e+00	1.161206e+00	1.688115e+00	1.687982e+00	1.694609e+00	1.711734e+00	1.725404e+00	1.701587e+00	1.568898e+00	1.338688e+00	1.207586e+00	1.158457e+00	1.152913e+00	1.156162e+00	1.160483e+00	1.162341e+00	1.162089e+00	1.161275e+00	1.161031e+00	1.161136e+00	1.161195e+00	1.161208e+00	1.161213e+00	1.161214e+00	1.161204e+00	1.161203e+00	1.161205e+00	1.161206e+00	1.161205e+00	1.161206e+00	1.161206e+00	1.161206e+00	1.161205e+00	1.161206e+00	1.161205e+00	1.161206e+00	1.161206e+00	1.161206e+00	1.161206e+00	1.161206e+00	1.161206e+00	1.161206e+00	1.161206e+00	1.161206e+00	1.161206e+00	1.161206e+00	1.161206e+00	1.161206e+00	1.161206e+00	1.161206e+00	1.161206e+00	1.161206e+00	1.161206e+00	1.161206e+00	1.161206e+00	1.161206e+00	1.161206e+00	1.161206e+00	1.161206e+00	1.161206e+00	1.161206e+00	1.161206e+00	1.161206e+00	1.161206e+00	1.161206e+00	1.161206e+00	1.161206e+00	1.161206e+00	1.161206e+00	1.161206e+00	1.161206e+00	1.161206e+00	1.161206e+00	1.161206e+00	1.161206e+00	1.161206e+00	1.161206e+00	1.692357e+00	1.689574e+00	1.687277e+00	1.692889e+00	1.709544e+00	1.725576e+00	1.708185e+00	1.594916e+00	1.364387e+00	1.216025e+00	1.163900e+00	1.153114e+00	1.154916e+00	1.159899e+00	1.162503e+00	1.162122e+00	1.161281e+00	1.161094e+00	1.161135e+00	1.161176e+00	1.161199e+00	1.161222e+00	1.161213e+00	1.161204e+00	1.161204e+00	1.161206e+00	1.161205e+00	1.161206e+00	1.161206e+00	1.161206e+00	1.161205e+00	1.161206e+00	1.161206e+00	1.161206e+00	1.161206e+00	1.161206e+00	1.161206e+00	1.161206e+00	1.161206e+00	1.161206e+00	1.161206e+00	1.161206e+00	1.161206e+00	1.161206e+00	1.161206e+00	1.161206e+00	1.161206e+00	1.161206e+00	1.161206e+00	1.161206e+00	1.161206e+00	1.161206e+00	1.161206e+00	1.161206e+00	1.161206e+00	1.161206e+00	1.161206e+00	1.161206e+00	1.161206e+00	1.161206e+00	1.161206e+00	1.161206e+00	1.161206e+00	1.161206e+00	1.161206e+00	1.161206e+00	1.161206e+00	1.161206e+00	1.161206e+00	1.161206e+00	1.161206e+00	1.161206e+00	1.161206e+00	1.161206e+00	1.161206e+00	1.695259e+00	1.693672e+00	1.689882e+00	1.686937e+00	1.691246e+00	1.707039e+00	1.724784e+00	1.714222e+00	1.621446e+00	1.393405e+00	1.225850e+00	1.171162e+00	1.153172e+00	1.153493e+00	1.159561e+00	1.162519e+00	1.162034e+00	1.161385e+00	1.161155e+00	1.161133e+00	1.161143e+00	1.161203e+00	1.161224e+00	1.161211e+00	1.161203e+00	1.161206e+00	1.161205e+00	1.161205e+00	1.161205e+00	1.161206e+00	1.161205e+00	1.161206e+00	1.161206e+00	1.161205e+00	1.161206e+00	1.161206e+00	1.161206e+00	1.161206e+00	1.161206e+00	1.161206e+00	1.161206e+00	1.161206e+00	1.161206e+00	1.161206e+00	1.161206e+00	1.161206e+00	1.161206e+00	1.161206e+00	1.161206e+00	1.161206e+00	1.161206e+00	1.161206e+00	1.161206e+00	1.161206e+00	1.161206e+00	1.161206e+00	1.161206e+00	1.161206e+00	1.161206e+00	1.161206e+00	1.161206e+00	1.161206e+00	1.161206e+00	1.161206e+00	1.161206e+00	1.161206e+00	1.161206e+00	1.161206e+00	1.161206e+00	1.161206e+00	1.161206e+00	1.161206e+00	1.161206e+00	1.161206e+00	1.161206e+00	1.695314e+00	1.695430e+00	1.694108e+00	1.690372e+00	1.686824e+00	1.689745e+00	1.704259e+00	1.723364e+00	1.719613e+00	1.647794e+00	1.427007e+00	1.239355e+00	1.179791e+00	1.152948e+00	1.152413e+00	1.159400e+00	1.162130e+00	1.162015e+00	1.161516e+00	1.161244e+00	1.161099e+00	1.161128e+00	1.161207e+00	1.161224e+00	1.161206e+00	1.161208e+00	1.161206e+00	1.161204e+00	1.161205e+00	1.161206e+00	1.161206e+00	1.161205e+00	1.161206e+00	1.