# vtk DataFile Version 3.0
vtk output
ASCII
DATASET UNSTRUCTURED_GRID
POINTS 75 float
1.500000e+00	1.763270e-01	0.0	1.479592e+00	1.727285e-01	0.0	1.459184e+00	1.691300e-01	0.0	1.438776e+00	1.655315e-01	0.0	1.418367e+00	1.619329e-01	0.0	1.397959e+00	1.583344e-01	0.0	1.377551e+00	1.547359e-01	0.0	1.357143e+00	1.511374e-01	0.0	1.336735e+00	1.475389e-01	0.0	1.316327e+00	1.439404e-01	0.0	1.295918e+00	1.403419e-01	0.0	1.275510e+00	1.367434e-01	0.0	1.255102e+00	1.331449e-01	0.0	1.234694e+00	1.295464e-01	0.0	1.214286e+00	1.259478e-01	0.0	1.193878e+00	1.223493e-01	0.0	1.173469e+00	1.187508e-01	0.0	1.153061e+00	1.151523e-01	0.0	1.132653e+00	1.115538e-01	0.0	1.112245e+00	1.079553e-01	0.0	1.091837e+00	1.043568e-01	0.0	1.071429e+00	1.007583e-01	0.0	1.051020e+00	9.715976e-02	0.0	1.030612e+00	9.356126e-02	0.0	1.010204e+00	8.996275e-02	0.0	9.897959e-01	8.636424e-02	0.0	9.693878e-01	8.276573e-02	0.0	9.489796e-01	7.916722e-02	0.0	9.285714e-01	7.556871e-02	0.0	9.081633e-01	7.197020e-02	0.0	8.877551e-01	6.837169e-02	0.0	8.673469e-01	6.477318e-02	0.0	8.469388e-01	6.117467e-02	0.0	8.265306e-01	5.757616e-02	0.0	8.061224e-01	5.397765e-02	0.0	7.857143e-01	5.037914e-02	0.0	7.653061e-01	4.678063e-02	0.0	7.448980e-01	4.318212e-02	0.0	7.244898e-01	3.958361e-02	0.0	7.040816e-01	3.598510e-02	0.0	6.836735e-01	3.238659e-02	0.0	6.632653e-01	2.878808e-02	0.0	6.428571e-01	2.518957e-02	0.0	6.224490e-01	2.159106e-02	0.0	6.020408e-01	1.799255e-02	0.0	5.816327e-01	1.439404e-02	0.0	5.612245e-01	1.079553e-02	0.0	5.408163e-01	7.197020e-03	0.0	5.204082e-01	3.598510e-03	0.0	5.000000e-01	0.000000e+00	0.0	4.800000e-01	0.000000e+00	0.0	4.600000e-01	0.000000e+00	0.0	4.400000e-01	0.000000e+00	0.0	4.200000e-01	0.000000e+00	0.0	4.000000e-01	0.000000e+00	0.0	3.800000e-01	0.000000e+00	0.0	3.600000e-01	0.000000e+00	0.0	3.400000e-01	0.000000e+00	0.0	3.200000e-01	0.000000e+00	0.0	3.000000e-01	0.000000e+00	0.0	2.800000e-01	0.000000e+00	0.0	2.600000e-01	0.000000e+00	0.0	2.400000e-01	0.000000e+00	0.0	2.200000e-01	0.000000e+00	0.0	2.000000e-01	0.000000e+00	0.0	1.800000e-01	0.000000e+00	0.0	1.600000e-01	0.000000e+00	0.0	1.400000e-01	0.000000e+00	0.0	1.200000e-01	0.000000e+00	0.0	1.000000e-01	0.000000e+00	0.0	8.000000e-02	0.000000e+00	0.0	6.000000e-02	0.000000e+00	0.0	4.000000e-02	0.000000e+00	0.0	2.000000e-02	0.000000e+00	0.0	0.000000e+00	0.000000e+00	0.0	
CELLS 74	222
2	74	73	2	73	72	2	72	71	2	71	70	2	70	69	2	69	68	2	68	67	2	67	66	2	66	65	2	65	64	2	64	63	2	63	62	2	62	61	2	61	60	2	60	59	2	59	58	2	58	57	2	57	56	2	56	55	2	55	54	2	54	53	2	53	52	2	52	51	2	51	50	2	50	49	2	49	48	2	48	47	2	47	46	2	46	45	2	45	44	2	44	43	2	43	42	2	42	41	2	41	40	2	40	39	2	39	38	2	38	37	2	37	36	2	36	35	2	35	34	2	34	33	2	33	32	2	32	31	2	31	30	2	30	29	2	29	28	2	28	27	2	27	26	2	26	25	2	25	24	2	24	23	2	23	22	2	22	21	2	21	20	2	20	19	2	19	18	2	18	17	2	17	16	2	16	15	2	15	14	2	14	13	2	13	12	2	12	11	2	11	10	2	10	9	2	9	8	2	8	7	2	7	6	2	6	5	2	5	4	2	4	3	2	3	2	2	2	1	2	1	0	
CELL_TYPES 74
3	3	3	3	3	3	3	3	3	3	3	3	3	3	3	3	3	3	3	3	3	3	3	3	3	3	3	3	3	3	3	3	3	3	3	3	3	3	3	3	3	3	3	3	3	3	3	3	3	3	3	3	3	3	3	3	3	3	3	3	3	3	3	3	3	3	3	3	3	3	3	3	3	3	
POINT_DATA 75

SCALARS Conservative_1 float 1
LOOKUP_TABLE default
1.696224e+00	1.696606e+00	1.696040e+00	1.696332e+00	1.696347e+00	1.696445e+00	1.696531e+00	1.696628e+00	1.696712e+00	1.696790e+00	1.696862e+00	1.696937e+00	1.697019e+00	1.697114e+00	1.697219e+00	1.697331e+00	1.697445e+00	1.697559e+00	1.697672e+00	1.697786e+00	1.697908e+00	1.698045e+00	1.698202e+00	1.698380e+00	1.698574e+00	1.698787e+00	1.699031e+00	1.699329e+00	1.699656e+00	1.699899e+00	1.699913e+00	1.699726e+00	1.699790e+00	1.700869e+00	1.703293e+00	1.705917e+00	1.706056e+00	1.701565e+00	1.694510e+00	1.692496e+00	1.703534e+00	1.725490e+00	1.739726e+00	1.722054e+00	1.674787e+00	1.648007e+00	1.714982e+00	1.835189e+00	1.736574e+00	1.340925e+00	1.140293e+00	1.164449e+00	1.160801e+00	1.161729e+00	1.161081e+00	1.161199e+00	1.161182e+00	1.161234e+00	1.161188e+00	1.161217e+00	1.161198e+00	1.161211e+00	1.161202e+00	1.161208e+00	1.161204e+00	1.161206e+00	1.161205e+00	1.161206e+00	1.161205e+00	1.161206e+00	1.161205e+00	1.161206e+00	1.161205e+00	1.161206e+00	1.161206e+00	
SCALARS Conservative_2 float 1
LOOKUP_TABLE default
1.032053e+03	1.032680e+03	1.032147e+03	1.032411e+03	1.032438e+03	1.032533e+03	1.032615e+03	1.032709e+03	1.032798e+03	1.032889e+03	1.032979e+03	1.033074e+03	1.033175e+03	1.033285e+03	1.033402e+03	1.033527e+03	1.033657e+03	1.033792e+03	1.033933e+03	1.034080e+03	1.034237e+03	1.034407e+03	1.034593e+03	1.034796e+03	1.035016e+03	1.035254e+03	1.035519e+03	1.035822e+03	1.036157e+03	1.036481e+03	1.036732e+03	1.036918e+03	1.037219e+03	1.037962e+03	1.039311e+03	1.040832e+03	1.041436e+03	1.040203e+03	1.037905e+03	1.037678e+03	1.042937e+03	1.052958e+03	1.060110e+03	1.054281e+03	1.035769e+03	1.025159e+03	1.053265e+03	1.103874e+03	1.067110e+03	8.763507e+02	7.910750e+02	8.126790e+02	8.062465e+02	8.079853e+02	8.074403e+02	8.075572e+02	8.075070e+02	8.075617e+02	8.075194e+02	8.075468e+02	8.075290e+02	8.075406e+02	8.075332e+02	8.075380e+02	8.075349e+02	8.075369e+02	8.075356e+02	8.075364e+02	8.075359e+02	8.075362e+02	8.075360e+02	8.075361e+02	8.075360e+02	8.075361e+02	8.075361e+02	
SCALARS Conservative_3 float 1
LOOKUP_TABLE default
1.820474e+02	1.821093e+02	1.819748e+02	1.820585e+02	1.820615e+02	1.820781e+02	1.820954e+02	1.821129e+02	1.821296e+02	1.821460e+02	1.821627e+02	1.821806e+02	1.822002e+02	1.822217e+02	1.822449e+02	1.822695e+02	1.822951e+02	1.823216e+02	1.823490e+02	1.823779e+02	1.824089e+02	1.824431e+02	1.824809e+02	1.825226e+02	1.825694e+02	1.826256e+02	1.826954e+02	1.827737e+02	1.828375e+02	1.828564e+02	1.828348e+02	1.828566e+02	1.830622e+02	1.835028e+02	1.839508e+02	1.839147e+02	1.830821e+02	1.819854e+02	1.821298e+02	1.847393e+02	1.886613e+02	1.894177e+02	1.825071e+02	1.698031e+02	1.649911e+02	1.816559e+02	2.200296e+02	2.187372e+02	1.115011e+02	1.011339e+01	-6.412150e+00	2.803038e+00	-4.174827e-01	6.887820e-02	-1.494292e-02	-1.699702e-02	1.264706e-02	-4.268619e-03	1.929547e-03	-1.357497e-03	8.527375e-04	-5.117972e-04	3.247668e-04	-2.088919e-04	1.331888e-04	-8.496440e-05	5.483995e-05	-3.540642e-05	2.271755e-05	-1.500434e-05	9.540826e-06	-6.156797e-06	4.376845e-06	-2.372283e-06	1.556510e-06	
SCALARS Conservative_4 float 1
LOOKUP_TABLE default
7.506588e+05	7.508970e+05	7.506113e+05	7.507570e+05	7.507670e+05	7.508167e+05	7.508604e+05	7.509097e+05	7.509535e+05	7.509958e+05	7.510359e+05	7.510779e+05	7.511237e+05	7.511751e+05	7.512313e+05	7.512910e+05	7.513524e+05	7.514147e+05	7.514776e+05	7.515423e+05	7.516112e+05	7.516872e+05	7.517731e+05	7.518691e+05	7.519738e+05	7.520877e+05	7.522175e+05	7.523718e+05	7.525409e+05	7.526793e+05	7.527269e+05	7.526978e+05	7.527779e+05	7.532803e+05	7.543369e+05	7.554754e+05	7.556015e+05	7.538568e+05	7.511108e+05	7.504818e+05	7.551978e+05	7.642809e+05	7.700590e+05	7.627833e+05	7.436751e+05	7.334142e+05	7.618820e+05	8.106611e+05	7.685162e+05	6.021296e+05	5.208572e+05	5.328504e+05	5.304070e+05	5.310483e+05	5.307333e+05	5.307940e+05	5.307788e+05	5.308062e+05	5.307830e+05	5.307978e+05	5.307881e+05	5.307946e+05	5.307904e+05	5.307931e+05	5.307914e+05	5.307925e+05	5.307917e+05	5.307922e+05	5.307919e+05	5.307921e+05	5.307920e+05	5.307921e+05	5.307920e+05	5.307921e+05	5.307920e+05	
SCALARS Pressure float 1
LOOKUP_TABLE default
1.707671e+05	1.707362e+05	1.707143e+05	1.707270e+05	1.707255e+05	1.707288e+05	1.707322e+05	1.707357e+05	1.707374e+05	1.707374e+05	1.707362e+05	1.707348e+05	1.707340e+05	1.707342e+05	1.707351e+05	1.707362e+05	1.707367e+05	1.707362e+05	1.707346e+05	1.707321e+05	1.707294e+05	1.707275e+05	1.707269e+05	1.707276e+05	1.707287e+05	1.707300e+05	1.707332e+05	1.707405e+05	1.707488e+05	1.707430e+05	1.707027e+05	1.706304e+05	1.705849e+05	1.706685e+05	1.709287e+05	1.712159e+05	1.711653e+05	1.704704e+05	1.693837e+05	1.689187e+05	1.701990e+05	1.730429e+05	1.749978e+05	1.726736e+05	1.661054e+05	1.618188e+05	1.697332e+05	1.862532e+05	1.748286e+05	1.262902e+05	9.857446e+04	9.970371e+04	1.001654e+05	1.000282e+05	9.999107e+04	9.999427e+04	1.000005e+05	1.000013e+05	9.999928e+04	1.000004e+05	9.999965e+04	1.000002e+05	9.999984e+04	1.000001e+05	9.999993e+04	1.000000e+05	9.999997e+04	1.000000e+05	9.999999e+04	1.000000e+05	9.999999e+04	1.000000e+05	1.000000e+05	1.000000e+05	1.000000e+05	
SCALARS Temperature float 1
LOOKUP_TABLE default
3.507125e+02	3.505702e+02	3.506423e+02	3.506081e+02	3.506017e+02	3.505884e+02	3.505775e+02	3.505646e+02	3.505506e+02	3.505347e+02	3.505174e+02	3.504991e+02	3.504803e+02	3.504611e+02	3.504413e+02	3.504204e+02	3.503979e+02	3.503734e+02	3.503468e+02	3.503181e+02	3.502874e+02	3.502552e+02	3.502217e+02	3.501864e+02	3.501486e+02	3.501075e+02	3.500635e+02	3.500173e+02	3.499670e+02	3.499049e+02	3.498195e+02	3.497098e+02	3.496035e+02	3.495529e+02	3.495876e+02	3.496363e+02	3.495045e+02	3.490043e+02	3.482233e+02	3.476806e+02	3.480459e+02	3.493588e+02	3.504146e+02	3.493089e+02	3.455052e+02	3.420585e+02	3.447766e+02	3.535521e+02	3.507110e+02	3.280919e+02	3.011469e+02	2.982779e+02	3.006008e+02	2.999493e+02	3.000054e+02	2.999846e+02	3.000076e+02	2.999966e+02	3.000025e+02	2.999983e+02	3.000010e+02	2.999994e+02	3.000004e+02	2.999998e+02	3.000001e+02	2.999999e+02	3.000001e+02	3.000000e+02	3.000000e+02	3.000000e+02	3.000000e+02	3.000000e+02	3.000000e+02	3.000000e+02	3.000000e+02	
SCALARS Pressure_Coefficient float 1
LOOKUP_TABLE default
2.527397e-01	2.526293e-01	2.525512e-01	2.525966e-01	2.525910e-01	2.526029e-01	2.526151e-01	2.526276e-01	2.526334e-01	2.526337e-01	2.526293e-01	2.526244e-01	2.526214e-01	2.526221e-01	2.526254e-01	2.526293e-01	2.526311e-01	2.526294e-01	2.526236e-01	2.526147e-01	2.526052e-01	2.525981e-01	2.525960e-01	2.525984e-01	2.526026e-01	2.526072e-01	2.526185e-01	2.526447e-01	2.526743e-01	2.526536e-01	2.525096e-01	2.522516e-01	2.520891e-01	2.523875e-01	2.533167e-01	2.543427e-01	2.541619e-01	2.516800e-01	2.477989e-01	2.461382e-01	2.507108e-01	2.608675e-01	2.678494e-01	2.595487e-01	2.360908e-01	2.207816e-01	2.490473e-01	3.080472e-01	2.672449e-01	9.389368e-02	-5.091230e-03	-1.058185e-03	5.905942e-04	1.007159e-04	-3.187682e-05	-2.046708e-05	1.896303e-06	4.702728e-06	-2.568177e-06	1.557698e-06	-1.255292e-06	8.851707e-07	-5.790081e-07	3.844782e-07	-2.566888e-07	1.693830e-07	-1.112259e-07	7.332101e-08	-4.813610e-08	3.135364e-08	-2.120339e-08	1.313983e-08	-9.185645e-09	6.189387e-09	-2.606333e-09	
SCALARS Mach float 1
LOOKUP_TABLE default
1.645689e+00	1.646639e+00	1.646158e+00	1.646386e+00	1.646429e+00	1.646518e+00	1.646591e+00	1.646677e+00	1.646770e+00	1.646877e+00	1.646992e+00	1.647115e+00	1.647240e+00	1.647368e+00	1.647501e+00	1.647640e+00	1.647791e+00	1.647954e+00	1.648132e+00	1.648324e+00	1.648528e+00	1.648744e+00	1.648968e+00	1.649204e+00	1.649457e+00	1.649731e+00	1.650025e+00	1.650334e+00	1.650670e+00	1.651086e+00	1.651657e+00	1.652390e+00	1.653102e+00	1.653440e+00	1.653208e+00	1.652882e+00	1.653764e+00	1.657112e+00	1.662346e+00	1.665987e+00	1.663536e+00	1.654739e+00	1.647679e+00	1.655073e+00	1.680615e+00	1.703910e+00	1.685528e+00	1.626771e+00	1.645699e+00	1.799930e+00	1.994241e+00	2.015773e+00	1.998325e+00	2.003207e+00	2.002786e+00	2.002942e+00	2.002769e+00	2.002852e+00	2.002808e+00	2.002839e+00	2.002819e+00	2.002831e+00	2.002824e+00	2.002828e+00	2.002826e+00	2.002827e+00	2.002826e+00	2.002827e+00	2.002827e+00	2.002827e+00	2.002827e+00	2.002827e+00	2.002827e+00	2.002827e+00	2.002827e+00	