# vtk DataFile Version 3.0
vtk output
ASCII
DATASET UNSTRUCTURED_GRID
POINTS 75 float
1.500000e+00	1.763270e-01	0.0	1.479592e+00	1.727285e-01	0.0	1.459184e+00	1.691300e-01	0.0	1.438776e+00	1.655315e-01	0.0	1.418367e+00	1.619329e-01	0.0	1.397959e+00	1.583344e-01	0.0	1.377551e+00	1.547359e-01	0.0	1.357143e+00	1.511374e-01	0.0	1.336735e+00	1.475389e-01	0.0	1.316327e+00	1.439404e-01	0.0	1.295918e+00	1.403419e-01	0.0	1.275510e+00	1.367434e-01	0.0	1.255102e+00	1.331449e-01	0.0	1.234694e+00	1.295464e-01	0.0	1.214286e+00	1.259478e-01	0.0	1.193878e+00	1.223493e-01	0.0	1.173469e+00	1.187508e-01	0.0	1.153061e+00	1.151523e-01	0.0	1.132653e+00	1.115538e-01	0.0	1.112245e+00	1.079553e-01	0.0	1.091837e+00	1.043568e-01	0.0	1.071429e+00	1.007583e-01	0.0	1.051020e+00	9.715976e-02	0.0	1.030612e+00	9.356126e-02	0.0	1.010204e+00	8.996275e-02	0.0	9.897959e-01	8.636424e-02	0.0	9.693878e-01	8.276573e-02	0.0	9.489796e-01	7.916722e-02	0.0	9.285714e-01	7.556871e-02	0.0	9.081633e-01	7.197020e-02	0.0	8.877551e-01	6.837169e-02	0.0	8.673469e-01	6.477318e-02	0.0	8.469388e-01	6.117467e-02	0.0	8.265306e-01	5.757616e-02	0.0	8.061224e-01	5.397765e-02	0.0	7.857143e-01	5.037914e-02	0.0	7.653061e-01	4.678063e-02	0.0	7.448980e-01	4.318212e-02	0.0	7.244898e-01	3.958361e-02	0.0	7.040816e-01	3.598510e-02	0.0	6.836735e-01	3.238659e-02	0.0	6.632653e-01	2.878808e-02	0.0	6.428571e-01	2.518957e-02	0.0	6.224490e-01	2.159106e-02	0.0	6.020408e-01	1.799255e-02	0.0	5.816327e-01	1.439404e-02	0.0	5.612245e-01	1.079553e-02	0.0	5.408163e-01	7.197020e-03	0.0	5.204082e-01	3.598510e-03	0.0	5.000000e-01	0.000000e+00	0.0	4.800000e-01	0.000000e+00	0.0	4.600000e-01	0.000000e+00	0.0	4.400000e-01	0.000000e+00	0.0	4.200000e-01	0.000000e+00	0.0	4.000000e-01	0.000000e+00	0.0	3.800000e-01	0.000000e+00	0.0	3.600000e-01	0.000000e+00	0.0	3.400000e-01	0.000000e+00	0.0	3.200000e-01	0.000000e+00	0.0	3.000000e-01	0.000000e+00	0.0	2.800000e-01	0.000000e+00	0.0	2.600000e-01	0.000000e+00	0.0	2.400000e-01	0.000000e+00	0.0	2.200000e-01	0.000000e+00	0.0	2.000000e-01	0.000000e+00	0.0	1.800000e-01	0.000000e+00	0.0	1.600000e-01	0.000000e+00	0.0	1.400000e-01	0.000000e+00	0.0	1.200000e-01	0.000000e+00	0.0	1.000000e-01	0.000000e+00	0.0	8.000000e-02	0.000000e+00	0.0	6.000000e-02	0.000000e+00	0.0	4.000000e-02	0.000000e+00	0.0	2.000000e-02	0.000000e+00	0.0	0.000000e+00	0.000000e+00	0.0	
CELLS 74	222
2	74	73	2	73	72	2	72	71	2	71	70	2	70	69	2	69	68	2	68	67	2	67	66	2	66	65	2	65	64	2	64	63	2	63	62	2	62	61	2	61	60	2	60	59	2	59	58	2	58	57	2	57	56	2	56	55	2	55	54	2	54	53	2	53	52	2	52	51	2	51	50	2	50	49	2	49	48	2	48	47	2	47	46	2	46	45	2	45	44	2	44	43	2	43	42	2	42	41	2	41	40	2	40	39	2	39	38	2	38	37	2	37	36	2	36	35	2	35	34	2	34	33	2	33	32	2	32	31	2	31	30	2	30	29	2	29	28	2	28	27	2	27	26	2	26	25	2	25	24	2	24	23	2	23	22	2	22	21	2	21	20	2	20	19	2	19	18	2	18	17	2	17	16	2	16	15	2	15	14	2	14	13	2	13	12	2	12	11	2	11	10	2	10	9	2	9	8	2	8	7	2	7	6	2	6	5	2	5	4	2	4	3	2	3	2	2	2	1	2	1	0	
CELL_TYPES 74
3	3	3	3	3	3	3	3	3	3	3	3	3	3	3	3	3	3	3	3	3	3	3	3	3	3	3	3	3	3	3	3	3	3	3	3	3	3	3	3	3	3	3	3	3	3	3	3	3	3	3	3	3	3	3	3	3	3	3	3	3	3	3	3	3	3	3	3	3	3	3	3	3	3	
POINT_DATA 75

SCALARS Conservative_1 float 1
LOOKUP_TABLE default
1.697806e+00	1.697790e+00	1.697782e+00	1.697783e+00	1.697787e+00	1.697790e+00	1.697785e+00	1.697770e+00	1.697747e+00	1.697720e+00	1.697696e+00	1.697679e+00	1.697670e+00	1.697662e+00	1.697652e+00	1.697637e+00	1.697620e+00	1.697601e+00	1.697574e+00	1.697535e+00	1.697496e+00	1.697489e+00	1.697530e+00	1.697578e+00	1.697536e+00	1.697357e+00	1.697173e+00	1.697260e+00	1.697735e+00	1.698198e+00	1.697874e+00	1.696508e+00	1.695295e+00	1.696379e+00	1.700366e+00	1.703844e+00	1.700861e+00	1.689935e+00	1.680536e+00	1.688600e+00	1.718963e+00	1.747275e+00	1.728372e+00	1.650980e+00	1.578651e+00	1.606300e+00	1.769776e+00	1.921017e+00	1.727276e+00	1.289371e+00	1.137684e+00	1.164112e+00	1.160981e+00	1.161186e+00	1.161218e+00	1.161203e+00	1.161206e+00	1.161205e+00	1.161206e+00	1.161206e+00	1.161206e+00	1.161206e+00	1.161206e+00	1.161206e+00	1.161206e+00	1.161206e+00	1.161206e+00	1.161206e+00	1.161206e+00	1.161206e+00	1.161206e+00	1.161206e+00	1.161206e+00	1.161206e+00	1.161206e+00	
SCALARS Conservative_2 float 1
LOOKUP_TABLE default
1.036164e+03	1.036146e+03	1.036132e+03	1.036121e+03	1.036111e+03	1.036101e+03	1.036088e+03	1.036072e+03	1.036052e+03	1.036031e+03	1.036011e+03	1.035993e+03	1.035979e+03	1.035965e+03	1.035950e+03	1.035934e+03	1.035916e+03	1.035898e+03	1.035878e+03	1.035853e+03	1.035827e+03	1.035812e+03	1.035815e+03	1.035824e+03	1.035805e+03	1.035731e+03	1.035644e+03	1.035648e+03	1.035804e+03	1.035991e+03	1.035914e+03	1.035420e+03	1.034884e+03	1.035128e+03	1.036537e+03	1.038032e+03	1.037341e+03	1.033429e+03	1.029325e+03	1.031215e+03	1.041951e+03	1.053900e+03	1.050389e+03	1.022447e+03	9.901553e+02	9.932019e+02	1.047150e+03	1.106209e+03	1.059777e+03	8.729609e+02	7.960289e+02	8.090035e+02	8.074344e+02	8.075223e+02	8.075433e+02	8.075344e+02	8.075364e+02	8.075361e+02	8.075361e+02	8.075361e+02	8.075361e+02	8.075361e+02	8.075361e+02	8.075361e+02	8.075361e+02	8.075361e+02	8.075361e+02	8.075361e+02	8.075361e+02	8.075361e+02	8.075361e+02	8.075361e+02	8.075361e+02	8.075361e+02	8.075361e+02	
SCALARS Conservative_3 float 1
LOOKUP_TABLE default
1.827000e+02	1.826970e+02	1.826950e+02	1.826939e+02	1.826931e+02	1.826917e+02	1.826893e+02	1.826856e+02	1.826811e+02	1.826768e+02	1.826733e+02	1.826708e+02	1.826688e+02	1.826666e+02	1.826641e+02	1.826620e+02	1.826598e+02	1.826557e+02	1.826478e+02	1.826388e+02	1.826368e+02	1.826475e+02	1.826615e+02	1.826542e+02	1.826106e+02	1.825614e+02	1.825784e+02	1.826964e+02	1.828185e+02	1.827422e+02	1.823873e+02	1.820497e+02	1.822931e+02	1.833059e+02	1.842345e+02	1.835135e+02	1.806699e+02	1.781322e+02	1.800765e+02	1.877290e+02	1.948862e+02	1.896695e+02	1.684216e+02	1.504566e+02	1.639415e+02	2.181051e+02	2.817225e+02	2.565361e+02	1.039178e+02	6.996216e-01	-3.396428e+00	1.035483e+00	-2.067455e-01	2.920696e-02	-1.924172e-03	-4.491639e-04	2.206169e-04	-5.689028e-05	1.087854e-05	-1.561179e-06	1.304078e-07	1.126208e-08	-7.977101e-09	2.144293e-09	-4.077636e-10	5.620427e-11	-3.476586e-12	-4.106119e-13	5.007317e-13	1.726733e-14	2.229964e-13	2.809470e-13	1.197349e-13	1.393450e-13	-2.253616e-14	
SCALARS Conservative_4 float 1
LOOKUP_TABLE default
7.528586e+05	7.528479e+05	7.528404e+05	7.528362e+05	7.528336e+05	7.528303e+05	7.528240e+05	7.528138e+05	7.528002e+05	7.527851e+05	7.527711e+05	7.527602e+05	7.527520e+05	7.527449e+05	7.527365e+05	7.527264e+05	7.527153e+05	7.527033e+05	7.526883e+05	7.526685e+05	7.526489e+05	7.526418e+05	7.526543e+05	7.526694e+05	7.526486e+05	7.525726e+05	7.524942e+05	7.525255e+05	7.527128e+05	7.528950e+05	7.527605e+05	7.522064e+05	7.517138e+05	7.521470e+05	7.537491e+05	7.551453e+05	7.539399e+05	7.495354e+05	7.457449e+05	7.489977e+05	7.612280e+05	7.725936e+05	7.650021e+05	7.338109e+05	7.045292e+05	7.160232e+05	7.827452e+05	8.428412e+05	7.645302e+05	5.849710e+05	5.215743e+05	5.319547e+05	5.307154e+05	5.307795e+05	5.307982e+05	5.307906e+05	5.307923e+05	5.307920e+05	5.307920e+05	5.307920e+05	5.307920e+05	5.307920e+05	5.307920e+05	5.307920e+05	5.307920e+05	5.307920e+05	5.307920e+05	5.307920e+05	5.307920e+05	5.307920e+05	5.307920e+05	5.307920e+05	5.307920e+05	5.307920e+05	5.307920e+05	
SCALARS Pressure float 1
LOOKUP_TABLE default
1.707382e+05	1.707370e+05	1.707370e+05	1.707381e+05	1.707398e+05	1.707412e+05	1.707416e+05	1.707405e+05	1.707383e+05	1.707356e+05	1.707332e+05	1.707319e+05	1.707316e+05	1.707316e+05	1.707312e+05	1.707301e+05	1.707287e+05	1.707270e+05	1.707242e+05	1.707197e+05	1.707153e+05	1.707153e+05	1.707221e+05	1.707298e+05	1.707249e+05	1.707008e+05	1.706758e+05	1.706891e+05	1.707570e+05	1.708231e+05	1.707785e+05	1.705871e+05	1.704171e+05	1.705706e+05	1.711334e+05	1.716251e+05	1.712045e+05	1.696663e+05	1.683469e+05	1.694739e+05	1.737564e+05	1.777840e+05	1.750472e+05	1.641425e+05	1.541984e+05	1.576638e+05	1.802123e+05	2.028837e+05	1.745157e+05	1.157817e+05	9.723259e+04	1.003378e+05	9.997595e+04	9.999693e+04	1.000016e+05	9.999961e+04	1.000001e+05	9.999999e+04	1.000000e+05	1.000000e+05	1.000000e+05	1.000000e+05	1.000000e+05	1.000000e+05	1.000000e+05	1.000000e+05	1.000000e+05	1.000000e+05	1.000000e+05	1.000000e+05	1.000000e+05	1.000000e+05	1.000000e+05	1.000000e+05	1.000000e+05	
SCALARS Temperature float 1
LOOKUP_TABLE default
3.503264e+02	3.503273e+02	3.503289e+02	3.503311e+02	3.503336e+02	3.503360e+02	3.503377e+02	3.503387e+02	3.503389e+02	3.503388e+02	3.503390e+02	3.503397e+02	3.503410e+02	3.503425e+02	3.503438e+02	3.503447e+02	3.503454e+02	3.503458e+02	3.503457e+02	3.503446e+02	3.503435e+02	3.503449e+02	3.503504e+02	3.503564e+02	3.503550e+02	3.503422e+02	3.503290e+02	3.503383e+02	3.503796e+02	3.504199e+02	3.503951e+02	3.502841e+02	3.501856e+02	3.502771e+02	3.506087e+02	3.508983e+02	3.506523e+02	3.497486e+02	3.489697e+02	3.496282e+02	3.521313e+02	3.544554e+02	3.528161e+02	3.463455e+02	3.402703e+02	3.419286e+02	3.547288e+02	3.679140e+02	3.519680e+02	3.128185e+02	2.977286e+02	3.002618e+02	2.999858e+02	2.999959e+02	3.000018e+02	2.999996e+02	3.000001e+02	3.000000e+02	3.000000e+02	3.000000e+02	3.000000e+02	3.000000e+02	3.000000e+02	3.000000e+02	3.000000e+02	3.000000e+02	3.000000e+02	3.000000e+02	3.000000e+02	3.000000e+02	3.000000e+02	3.000000e+02	3.000000e+02	3.000000e+02	3.000000e+02	
SCALARS Pressure_Coefficient float 1
LOOKUP_TABLE default
2.526363e-01	2.526322e-01	2.526321e-01	2.526361e-01	2.526420e-01	2.526471e-01	2.526484e-01	2.526448e-01	2.526368e-01	2.526270e-01	2.526187e-01	2.526140e-01	2.526128e-01	2.526128e-01	2.526113e-01	2.526075e-01	2.526025e-01	2.525964e-01	2.525863e-01	2.525704e-01	2.525548e-01	2.525546e-01	2.525788e-01	2.526064e-01	2.525891e-01	2.525027e-01	2.524135e-01	2.524610e-01	2.527034e-01	2.529397e-01	2.527803e-01	2.520967e-01	2.514897e-01	2.520379e-01	2.540478e-01	2.558038e-01	2.543018e-01	2.488081e-01	2.440962e-01	2.481212e-01	2.634156e-01	2.777999e-01	2.680259e-01	2.290802e-01	1.935658e-01	2.059420e-01	2.864725e-01	3.674418e-01	2.661276e-01	5.636326e-02	-9.883620e-03	1.206536e-03	-8.588039e-05	-1.094841e-05	5.841988e-06	-1.387947e-06	2.258024e-07	-2.175210e-08	-1.215206e-09	1.191143e-09	-3.452071e-10	6.985626e-11	-1.043965e-11	9.173943e-13	7.010905e-14	-5.456968e-14	1.543542e-14	-2.442643e-15	5.197113e-16	-5.197113e-17	-1.559134e-16	1.039423e-16	-2.078845e-16	0.000000e+00	-1.559134e-16	
SCALARS Mach float 1
LOOKUP_TABLE default
1.651594e+00	1.651580e+00	1.651561e+00	1.651538e+00	1.651513e+00	1.651488e+00	1.651468e+00	1.651454e+00	1.651444e+00	1.651437e+00	1.651428e+00	1.651414e+00	1.651398e+00	1.651379e+00	1.651363e+00	1.651349e+00	1.651337e+00	1.651325e+00	1.651319e+00	1.651318e+00	1.651318e+00	1.651300e+00	1.651256e+00	1.651208e+00	1.651210e+00	1.651287e+00	1.651368e+00	1.651298e+00	1.651015e+00	1.650737e+00	1.650895e+00	1.651629e+00	1.652281e+00	1.651663e+00	1.649439e+00	1.647496e+00	1.649129e+00	1.655167e+00	1.660383e+00	1.655961e+00	1.639254e+00	1.623791e+00	1.634564e+00	1.677827e+00	1.719210e+00	1.707737e+00	1.622811e+00	1.537302e+00	1.639193e+00	1.909510e+00	2.022796e+00	2.000585e+00	2.003009e+00	2.002840e+00	2.002818e+00	2.002829e+00	2.002826e+00	2.002827e+00	2.002827e+00	2.002827e+00	2.002827e+00	2.002827e+00	2.002827e+00	2.002827e+00	2.002827e+00	2.002827e+00	2.002827e+00	2.002827e+00	2.002827e+00	2.002827e+00	2.002827e+00	2.002827e+00	2.002827e+00	2.002827e+00	2.002827e+00	