# vtk DataFile Version 3.0
vtk output
ASCII
DATASET UNSTRUCTURED_GRID
POINTS 3750 float
1.500000e+00	1.000000e+00	0.0	1.479592e+00	1.000000e+00	0.0	1.459184e+00	1.000000e+00	0.0	1.438776e+00	1.000000e+00	0.0	1.418367e+00	1.000000e+00	0.0	1.397959e+00	1.000000e+00	0.0	1.377551e+00	1.000000e+00	0.0	1.357143e+00	1.000000e+00	0.0	1.336735e+00	1.000000e+00	0.0	1.316327e+00	1.000000e+00	0.0	1.295918e+00	1.000000e+00	0.0	1.275510e+00	1.000000e+00	0.0	1.255102e+00	1.000000e+00	0.0	1.234694e+00	1.000000e+00	0.0	1.214286e+00	1.000000e+00	0.0	1.193878e+00	1.000000e+00	0.0	1.173469e+00	1.000000e+00	0.0	1.153061e+00	1.000000e+00	0.0	1.132653e+00	1.000000e+00	0.0	1.112245e+00	1.000000e+00	0.0	1.091837e+00	1.000000e+00	0.0	1.071429e+00	1.000000e+00	0.0	1.051020e+00	1.000000e+00	0.0	1.030612e+00	1.000000e+00	0.0	1.010204e+00	1.000000e+00	0.0	9.897959e-01	1.000000e+00	0.0	9.693878e-01	1.000000e+00	0.0	9.489796e-01	1.000000e+00	0.0	9.285714e-01	1.000000e+00	0.0	9.081633e-01	1.000000e+00	0.0	8.877551e-01	1.000000e+00	0.0	8.673469e-01	1.000000e+00	0.0	8.469388e-01	1.000000e+00	0.0	8.265306e-01	1.000000e+00	0.0	8.061224e-01	1.000000e+00	0.0	7.857143e-01	1.000000e+00	0.0	7.653061e-01	1.000000e+00	0.0	7.448980e-01	1.000000e+00	0.0	7.244898e-01	1.000000e+00	0.0	7.040816e-01	1.000000e+00	0.0	6.836735e-01	1.000000e+00	0.0	6.632653e-01	1.000000e+00	0.0	6.428571e-01	1.000000e+00	0.0	6.224490e-01	1.000000e+00	0.0	6.020408e-01	1.000000e+00	0.0	5.816327e-01	1.000000e+00	0.0	5.612245e-01	1.000000e+00	0.0	5.408163e-01	1.000000e+00	0.0	5.204082e-01	1.000000e+00	0.0	5.000000e-01	1.000000e+00	0.0	4.800000e-01	1.000000e+00	0.0	4.600000e-01	1.000000e+00	0.0	4.400000e-01	1.000000e+00	0.0	4.200000e-01	1.000000e+00	0.0	4.000000e-01	1.000000e+00	0.0	3.800000e-01	1.000000e+00	0.0	3.600000e-01	1.000000e+00	0.0	3.400000e-01	1.000000e+00	0.0	3.200000e-01	1.000000e+00	0.0	3.000000e-01	1.000000e+00	0.0	2.800000e-01	1.000000e+00	0.0	2.600000e-01	1.000000e+00	0.0	2.400000e-01	1.000000e+00	0.0	2.200000e-01	1.000000e+00	0.0	2.000000e-01	1.000000e+00	0.0	1.800000e-01	1.000000e+00	0.0	1.600000e-01	1.000000e+00	0.0	1.400000e-01	1.000000e+00	0.0	1.200000e-01	1.000000e+00	0.0	1.000000e-01	1.000000e+00	0.0	8.000000e-02	1.000000e+00	0.0	6.000000e-02	1.000000e+00	0.0	4.000000e-02	1.000000e+00	0.0	2.000000e-02	1.000000e+00	0.0	0.000000e+00	1.000000e+00	0.0	1.500000e+00	9.831903e-01	0.0	1.479592e+00	9.831169e-01	0.0	1.459184e+00	9.830435e-01	0.0	1.438776e+00	9.829700e-01	0.0	1.418367e+00	9.828966e-01	0.0	1.397959e+00	9.828232e-01	0.0	1.377551e+00	9.827497e-01	0.0	1.357143e+00	9.826763e-01	0.0	1.336735e+00	9.826028e-01	0.0	1.316327e+00	9.825294e-01	0.0	1.295918e+00	9.824560e-01	0.0	1.275510e+00	9.823825e-01	0.0	1.255102e+00	9.823091e-01	0.0	1.234694e+00	9.822356e-01	0.0	1.214286e+00	9.821622e-01	0.0	1.193878e+00	9.820888e-01	0.0	1.173469e+00	9.820153e-01	0.0	1.153061e+00	9.819419e-01	0.0	1.132653e+00	9.818684e-01	0.0	1.112245e+00	9.817950e-01	0.0	1.091837e+00	9.817216e-01	0.0	1.071429e+00	9.816481e-01	0.0	1.051020e+00	9.815747e-01	0.0	1.030612e+00	9.815013e-01	0.0	1.010204e+00	9.814278e-01	0.0	9.897959e-01	9.813544e-01	0.0	9.693878e-01	9.812809e-01	0.0	9.489796e-01	9.812075e-01	0.0	9.285714e-01	9.811341e-01	0.0	9.081633e-01	9.810606e-01	0.0	8.877551e-01	9.809872e-01	0.0	8.673469e-01	9.809137e-01	0.0	8.469388e-01	9.808403e-01	0.0	8.265306e-01	9.807669e-01	0.0	8.061224e-01	9.806934e-01	0.0	7.857143e-01	9.806200e-01	0.0	7.653061e-01	9.805465e-01	0.0	7.448980e-01	9.804731e-01	0.0	7.244898e-01	9.803997e-01	0.0	7.040816e-01	9.803262e-01	0.0	6.836735e-01	9.802528e-01	0.0	6.632653e-01	9.801793e-01	0.0	6.428571e-01	9.801059e-01	0.0	6.224490e-01	9.800325e-01	0.0	6.020408e-01	9.799590e-01	0.0	5.816327e-01	9.798856e-01	0.0	5.612245e-01	9.798122e-01	0.0	5.408163e-01	9.797387e-01	0.0	5.204082e-01	9.796653e-01	0.0	5.000000e-01	9.795918e-01	0.0	4.800000e-01	9.795918e-01	0.0	4.600000e-01	9.795918e-01	0.0	4.400000e-01	9.795918e-01	0.0	4.200000e-01	9.795918e-01	0.0	4.000000e-01	9.795918e-01	0.0	3.800000e-01	9.795918e-01	0.0	3.600000e-01	9.795918e-01	0.0	3.400000e-01	9.795918e-01	0.0	3.200000e-01	9.795918e-01	0.0	3.000000e-01	9.795918e-01	0.0	2.800000e-01	9.795918e-01	0.0	2.600000e-01	9.795918e-01	0.0	2.400000e-01	9.795918e-01	0.0	2.200000e-01	9.795918e-01	0.0	2.000000e-01	9.795918e-01	0.0	1.800000e-01	9.795918e-01	0.0	1.600000e-01	9.795918e-01	0.0	1.400000e-01	9.795918e-01	0.0	1.200000e-01	9.795918e-01	0.0	1.000000e-01	9.795918e-01	0.0	8.000000e-02	9.795918e-01	0.0	6.000000e-02	9.795918e-01	0.0	4.000000e-02	9.795918e-01	0.0	2.000000e-02	9.795918e-01	0.0	0.000000e+00	9.795918e-01	0.0	1.500000e+00	9.663807e-01	0.0	1.479592e+00	9.662338e-01	0.0	1.459184e+00	9.660869e-01	0.0	1.438776e+00	9.659401e-01	0.0	1.418367e+00	9.657932e-01	0.0	1.397959e+00	9.656463e-01	0.0	1.377551e+00	9.654994e-01	0.0	1.357143e+00	9.653525e-01	0.0	1.336735e+00	9.652057e-01	0.0	1.316327e+00	9.650588e-01	0.0	1.295918e+00	9.649119e-01	0.0	1.275510e+00	9.647650e-01	0.0	1.255102e+00	9.646182e-01	0.0	1.234694e+00	9.644713e-01	0.0	1.214286e+00	9.643244e-01	0.0	1.193878e+00	9.641775e-01	0.0	1.173469e+00	9.640306e-01	0.0	1.153061e+00	9.638838e-01	0.0	1.132653e+00	9.637369e-01	0.0	1.112245e+00	9.635900e-01	0.0	1.091837e+00	9.634431e-01	0.0	1.071429e+00	9.632963e-01	0.0	1.051020e+00	9.631494e-01	0.0	1.030612e+00	9.630025e-01	0.0	1.010204e+00	9.628556e-01	0.0	9.897959e-01	9.627087e-01	0.0	9.693878e-01	9.625619e-01	0.0	9.489796e-01	9.624150e-01	0.0	9.285714e-01	9.622681e-01	0.0	9.081633e-01	9.621212e-01	0.0	8.877551e-01	9.619744e-01	0.0	8.673469e-01	9.618275e-01	0.0	8.469388e-01	9.616806e-01	0.0	8.265306e-01	9.615337e-01	0.0	8.061224e-01	9.613868e-01	0.0	7.857143e-01	9.612400e-01	0.0	7.653061e-01	9.610931e-01	0.0	7.448980e-01	9.609462e-01	0.0	7.244898e-01	9.607993e-01	0.0	7.040816e-01	9.606525e-01	0.0	6.836735e-01	9.605056e-01	0.0	6.632653e-01	9.603587e-01	0.0	6.428571e-01	9.602118e-01	0.0	6.224490e-01	9.600649e-01	0.0	6.020408e-01	9.599181e-01	0.0	5.816327e-01	9.597712e-01	0.0	5.612245e-01	9.596243e-01	0.0	5.408163e-01	9.594774e-01	0.0	5.204082e-01	9.593306e-01	0.0	5.000000e-01	9.591837e-01	0.0	4.800000e-01	9.591837e-01	0.0	4.600000e-01	9.591837e-01	0.0	4.400000e-01	9.591837e-01	0.0	4.200000e-01	9.591837e-01	0.0	4.000000e-01	9.591837e-01	0.0	3.800000e-01	9.591837e-01	0.0	3.600000e-01	9.591837e-01	0.0	3.400000e-01	9.591837e-01	0.0	3.200000e-01	9.591837e-01	0.0	3.000000e-01	9.591837e-01	0.0	2.800000e-01	9.591837e-01	0.0	2.600000e-01	9.591837e-01	0.0	2.400000e-01	9.591837e-01	0.0	2.200000e-01	9.591837e-01	0.0	2.000000e-01	9.591837e-01	0.0	1.800000e-01	9.591837e-01	0.0	1.600000e-01	9.591837e-01	0.0	1.400000e-01	9.591837e-01	0.0	1.200000e-01	9.591837e-01	0.0	1.000000e-01	9.591837e-01	0.0	8.000000e-02	9.591837e-01	0.0	6.000000e-02	9.591837e-01	0.0	4.000000e-02	9.591837e-01	0.0	2.000000e-02	9.591837e-01	0.0	0.000000e+00	9.591837e-01	0.0	1.500000e+00	9.495710e-01	0.0	1.479592e+00	9.493507e-01	0.0	1.459184e+00	9.491304e-01	0.0	1.438776e+00	9.489101e-01	0.0	1.418367e+00	9.486898e-01	0.0	1.397959e+00	9.484695e-01	0.0	1.377551e+00	9.482491e-01	0.0	1.357143e+00	9.480288e-01	0.0	1.336735e+00	9.478085e-01	0.0	1.316327e+00	9.475882e-01	0.0	1.295918e+00	9.473679e-01	0.0	1.275510e+00	9.471476e-01	0.0	1.255102e+00	9.469272e-01	0.0	1.234694e+00	9.467069e-01	0.0	1.214286e+00	9.464866e-01	0.0	1.193878e+00	9.462663e-01	0.0	1.173469e+00	9.460460e-01	0.0	1.153061e+00	9.458257e-01	0.0	1.132653e+00	9.456053e-01	0.0	1.112245e+00	9.453850e-01	0.0	1.091837e+00	9.451647e-01	0.0	1.071429e+00	9.449444e-01	0.0	1.051020e+00	9.447241e-01	0.0	1.030612e+00	9.445038e-01	0.0	1.010204e+00	9.442834e-01	0.0	9.897959e-01	9.440631e-01	0.0	9.693878e-01	9.438428e-01	0.0	9.489796e-01	9.436225e-01	0.0	9.285714e-01	9.434022e-01	0.0	9.081633e-01	9.431818e-01	0.0	8.877551e-01	9.429615e-01	0.0	8.673469e-01	9.427412e-01	0.0	8.469388e-01	9.425209e-01	0.0	8.265306e-01	9.423006e-01	0.0	8.061224e-01	9.420803e-01	0.0	7.857143e-01	9.418599e-01	0.0	7.653061e-01	9.416396e-01	0.0	7.448980e-01	9.414193e-01	0.0	7.244898e-01	9.411990e-01	0.0	7.040816e-01	9.409787e-01	0.0	6.836735e-01	9.407584e-01	0.0	6.632653e-01	9.405380e-01	0.0	6.428571e-01	9.403177e-01	0.0	6.224490e-01	9.400974e-01	0.0	6.020408e-01	9.398771e-01	0.0	5.816327e-01	9.396568e-01	0.0	5.612245e-01	9.394365e-01	0.0	5.408163e-01	9.392161e-01	0.0	5.204082e-01	9.389958e-01	0.0	5.000000e-01	9.387755e-01	0.0	4.800000e-01	9.387755e-01	0.0	4.600000e-01	9.387755e-01	0.0	4.400000e-01	9.387755e-01	0.0	4.200000e-01	9.387755e-01	0.0	4.000000e-01	9.387755e-01	0.0	3.800000e-01	9.387755e-01	0.0	3.600000e-01	9.387755e-01	0.0	3.400000e-01	9.387755e-01	0.0	3.200000e-01	9.387755e-01	0.0	3.000000e-01	9.387755e-01	0.0	2.800000e-01	9.387755e-01	0.0	2.600000e-01	9.387755e-01	0.0	2.400000e-01	9.387755e-01	0.0	2.200000e-01	9.387755e-01	0.0	2.000000e-01	9.387755e-01	0.0	1.800000e-01	9.387755e-01	0.0	1.600000e-01	9.387755e-01	0.0	1.400000e-01	9.387755e-01	0.0	1.200000e-01	9.387755e-01	0.0	1.000000e-01	9.387755e-01	0.0	8.000000e-02	9.387755e-01	0.0	6.000000e-02	9.387755e-01	0.0	4.000000e-02	9.387755e-01	0.0	2.000000e-02	9.387755e-01	0.0	0.000000e+00	9.387755e-01	0.0	1.500000e+00	9.327614e-01	0.0	1.479592e+00	9.324676e-01	0.0	1.459184e+00	9.321739e-01	0.0	1.438776e+00	9.318801e-01	0.0	1.418367e+00	9.315864e-01	0.0	1.397959e+00	9.312926e-01	0.0	1.377551e+00	9.309989e-01	0.0	1.357143e+00	9.307051e-01	0.0	1.336735e+00	9.304113e-01	0.0	1.316327e+00	9.301176e-01	0.0	1.295918e+00	9.298238e-01	0.0	1.275510e+00	9.295301e-01	0.0	1.255102e+00	9.292363e-01	0.0	1.234694e+00	9.289426e-01	0.0	1.214286e+00	9.286488e-01	0.0	1.193878e+00	9.283550e-01	0.0	1.173469e+00	9.280613e-01	0.0	1.153061e+00	9.277675e-01	0.0	1.132653e+00	9.274738e-01	0.0	1.112245e+00	9.271800e-01	0.0	1.091837e+00	9.268863e-01	0.0	1.071429e+00	9.265925e-01	0.0	1.051020e+00	9.262988e-01	0.0	1.030612e+00	9.260050e-01	0.0	1.010204e+00	9.257112e-01	0.0	9.897959e-01	9.254175e-01	0.0	9.693878e-01	9.251237e-01	0.0	9.489796e-01	9.248300e-01	0.0	9.285714e-01	9.245362e-01	0.0	9.081633e-01	9.242425e-01	0.0	8.877551e-01
[...]
POINT_DATA 3750

SCALARS Conservative_1 float 1
LOOKUP_TABLE default
1.161235e+00	1.161212e+00	1.161198e+00	1.161202e+00	1.161205e+00	1.161204e+00	1.161204e+00	1.161204e+00	1.161204e+00	1.161204e+00	1.161205e+00	1.161205e+00	1.161205e+00	1.161205e+00	1.161205e+00	1.161205e+00	1.161205e+00	1.161205e+00	1.161205e+00	1.161205e+00	1.161205e+00	1.161205e+00	1.161205e+00	1.161206e+00	1.161206e+00	1.161206e+00	1.161206e+00	1.161206e+00	1.161206e+00	1.161206e+00	1.161206e+00	1.161206e+00	1.161206e+00	1.161206e+00	1.161206e+00	1.161206e+00	1.161206e+00	1.161206e+00	1.161206e+00	1.161206e+00	1.161206e+00	1.161206e+00	1.161206e+00	1.161206e+00	1.161206e+00	1.161206e+00	1.161206e+00	1.161206e+00	1.161206e+00	1.161206e+00	1.161206e+00	1.161206e+00	1.161206e+00	1.161206e+00	1.161206e+00	1.161206e+00	1.161206e+00	1.161206e+00	1.161206e+00	1.161206e+00	1.161206e+00	1.161206e+00	1.161206e+00	1.161206e+00	1.161206e+00	1.161206e+00	1.161206e+00	1.161206e+00	1.161206e+00	1.161206e+00	1.161206e+00	1.161206e+00	1.161206e+00	1.161206e+00	1.161206e+00	1.161221e+00	1.161218e+00	1.161204e+00	1.161202e+00	1.161205e+00	1.161207e+00	1.161207e+00	1.161207e+00	1.161207e+00	1.161207e+00	1.161206e+00	1.161206e+00	1.161206e+00	1.161206e+00	1.161206e+00	1.161206e+00	1.161206e+00	1.161206e+00	1.161206e+00	1.161206e+00	1.161206e+00	1.161206e+00	1.161206e+00	1.161206e+00	1.161206e+00	1.161206e+00	1.161206e+00	1.161206e+00	1.161206e+00	1.161206e+00	1.161206e+00	1.161206e+00	1.161206e+00	1.161206e+00	1.161206e+00	1.161206e+00	1.161206e+00	1.161206e+00	1.161206e+00	1.161206e+00	1.161206e+00	1.161206e+00	1.161206e+00	1.161206e+00	1.161206e+00	1.161206e+00	1.161206e+00	1.161206e+00	1.161206e+00	1.161206e+00	1.161206e+00	1.161206e+00	1.161206e+00	1.161206e+00	1.161206e+00	1.161206e+00	1.161206e+00	1.161206e+00	1.161206e+00	1.161206e+00	1.161206e+00	1.161206e+00	1.161206e+00	1.161206e+00	1.161206e+00	1.161206e+00	1.161206e+00	1.161206e+00	1.161206e+00	1.161206e+00	1.161206e+00	1.161206e+00	1.161206e+00	1.161206e+00	1.161206e+00	1.161177e+00	1.161234e+00	1.161231e+00	1.161205e+00	1.161201e+00	1.161202e+00	1.161202e+00	1.161203e+00	1.161203e+00	1.161203e+00	1.161204e+00	1.161204e+00	1.161204e+00	1.161204e+00	1.161205e+00	1.161205e+00	1.161205e+00	1.161205e+00	1.161205e+00	1.161205e+00	1.161205e+00	1.161205e+00	1.161205e+00	1.161205e+00	1.161206e+00	1.161206e+00	1.161206e+00	1.161206e+00	1.161206e+00	1.161206e+00	1.161206e+00	1.161206e+00	1.161206e+00	1.161206e+00	1.161206e+00	1.161206e+00	1.161206e+00	1.161206e+00	1.161206e+00	1.161206e+00	1.161206e+00	1.161206e+00	1.161206e+00	1.161206e+00	1.161206e+00	1.161206e+00	1.161206e+00	1.161206e+00	1.161206e+00	1.161206e+00	1.161206e+00	1.161206e+00	1.161206e+00	1.161206e+00	1.161206e+00	1.161206e+00	1.161206e+00	1.161206e+00	1.161206e+00	1.161206e+00	1.161206e+00	1.161206e+00	1.161206e+00	1.161206e+00	1.161206e+00	1.161206e+00	1.161206e+00	1.161206e+00	1.161206e+00	1.161206e+00	1.161206e+00	1.161206e+00	1.161206e+00	1.161206e+00	1.161206e+00	1.161031e+00	1.161145e+00	1.161240e+00	1.161227e+00	1.161208e+00	1.161205e+00	1.161209e+00	1.161209e+00	1.161210e+00	1.161209e+00	1.161208e+00	1.161208e+00	1.161207e+00	1.161207e+00	1.161207e+00	1.161207e+00	1.161207e+00	1.161206e+00	1.161206e+00	1.161206e+00	1.161206e+00	1.161206e+00	1.161206e+00	1.161206e+00	1.161206e+00	1.161206e+00	1.161206e+00	1.161206e+00	1.161206e+00	1.161206e+00	1.161206e+00	1.161206e+00	1.161206e+00	1.161206e+00	1.161206e+00	1.161206e+00	1.161206e+00	1.161206e+00	1.161206e+00	1.161206e+00	1.161206e+00	1.161206e+00	1.161206e+00	1.161206e+00	1.161206e+00	1.161206e+00	1.161206e+00	1.161206e+00	1.161206e+00	1.161206e+00	1.161206e+00	1.161206e+00	1.161206e+00	1.161206e+00	1.161206e+00	1.161206e+00	1.161206e+00	1.161206e+00	1.161206e+00	1.161206e+00	1.161206e+00	1.161206e+00	1.161206e+00	1.161206e+00	1.161206e+00	1.161206e+00	1.161206e+00	1.161206e+00	1.161206e+00	1.161206e+00	1.161206e+00	1.161206e+00	1.161206e+00	1.161206e+00	1.161206e+00	1.161039e+00	1.160952e+00	1.161155e+00	1.161249e+00	1.161221e+00	1.161207e+00	1.161196e+00	1.161199e+00	1.161200e+00	1.161201e+00	1.161202e+00	1.161202e+00	1.161203e+00	1.161203e+00	1.161204e+00	1.161204e+00	1.161204e+00	1.161204e+00	1.161205e+00	1.161205e+00	1.161205e+00	1.161205e+00	1.161205e+00	1.161205e+00	1.161205e+00	1.161205e+00	1.161206e+00	1.161206e+00	1.161206e+00	1.161206e+00	1.161206e+00	1.161206e+00	1.161206e+00	1.161206e+00	1.161206e+00	1.161206e+00	1.161206e+00	1.161206e+00	1.161206e+00	1.161206e+00	1.161206e+00	1.161206e+00	1.161206e+00	1.161206e+00	1.161206e+00	1.161206e+00	1.161206e+00	1.161206e+00	1.161206e+00	1.161206e+00	1.161206e+00	1.161206e+00	1.161206e+00	1.161206e+00	1.161206e+00	1.161206e+00	1.161206e+00	1.161206e+00	1.161206e+00	1.161206e+00	1.161206e+00	1.161206e+00	1.161206e+00	1.161206e+00	1.161206e+00	1.161206e+00	1.161206e+00	1.161206e+00	1.161206e+00	1.161206e+00	1.161206e+00	1.161206e+00	1.161206e+00	1.161206e+00	1.161206e+00	1.161871e+00	1.161042e+00	1.160888e+00	1.161164e+00	1.161246e+00	1.161226e+00	1.161218e+00	1.161207e+00	1.161211e+00	1.161211e+00	1.161211e+00	1.161210e+00	1.161209e+00	1.161208e+00	1.161208e+00	1.161208e+00	1.161207e+00	1.161207e+00	1.161207e+00	1.161206e+00	1.161206e+00	1.161206e+00	1.161206e+00	1.161206e+00	1.161206e+00	1.161206e+00	1.161206e+00	1.161206e+00	1.161206e+00	1.161206e+00	1.161206e+00	1.161206e+00	1.161206e+00	1.161206e+00	1.161206e+00	1.161206e+00	1.161206e+00	1.161206e+00	1.161206e+00	1.161206e+00	1.161206e+00	1.161206e+00	1.161206e+00	1.161206e+00	1.161206e+00	1.161206e+00	1.161206e+00	1.161206e+00	1.161206e+00	1.161206e+00	1.161206e+00	1.161206e+00	1.161206e+00	1.161206e+00	1.161206e+00	1.161206e+00	1.161206e+00	1.161206e+00	1.161206e+00	1.161206e+00	1.161206e+00	1.161206e+00	1.161206e+00	1.161206e+00	1.161206e+00	1.161206e+00	1.161206e+00	1.161206e+00	1.161206e+00	1.161206e+00	1.161206e+00	1.161206e+00	1.161206e+00	1.161206e+00	1.161206e+00	1.163478e+00	1.162298e+00	1.160894e+00	1.160923e+00	1.161144e+00	1.161238e+00	1.161220e+00	1.161207e+00	1.161194e+00	1.161197e+00	1.161198e+00	1.161200e+00	1.161201e+00	1.161202e+00	1.161202e+00	1.161203e+00	1.161203e+00	1.161204e+00	1.161204e+00	1.161204e+00	1.161205e+00	1.161205e+00	1.161205e+00	1.161205e+00	1.161205e+00	1.161205e+00	1.161205e+00	1.161206e+00	1.161206e+00	1.161206e+00	1.161206e+00	1.161206e+00	1.161206e+00	1.161206e+00	1.161206e+00	1.161206e+00	1.161206e+00	1.161206e+00	1.161206e+00	1.161206e+00	1.161206e+00	1.161206e+00	1.161206e+00	1.161206e+00	1.161206e+00	1.161206e+00	1.161206e+00	1.161206e+00	1.161206e+00	1.161206e+00	1.161206e+00	1.161206e+00	1.161206e+00	1.161206e+00	1.161206e+00	1.161206e+00	1.161206e+00	1.161206e+00	1.161206e+00	1.161206e+00	1.161206e+00	1.161206e+00	1.161206e+00	1.161206e+00	1.161206e+00	1.161206e+00	1.161206e+00	1.161206e+00	1.161206e+00	1.161206e+00	1.161206e+00	1.161206e+00	1.161206e+00	1.161206e+00	1.161206e+00	1.161816e+00	1.164430e+00	1.162407e+00	1.160818e+00	1.160970e+00	1.161112e+00	1.161248e+00	1.161233e+00	1.161224e+00	1.161210e+00	1.161212e+00	1.161212e+00	1.161212e+00	1.161211e+00	1.161210e+00	1.161209e+00	1.161208e+00	1.161208e+00	1.161207e+00	1.161207e+00	1.161207e+00	1.161206e+00	1.161206e+00	1.161206e+00	1.161206e+00	1.161206e+00	1.161206e+00	1.161206e+00	1.161206e+00	1.161206e+00	1.161206e+00	1.161206e+00	1.161206e+00	1.161206e+00	1.161206e+00	1.161206e+00	1.161206e+00	1.161206e+00	1.161206e+00	1.161206e+00	1.161206e+00	1.161206e+00	1.161206e+00	1.161206e+00	1.161206e+00	1.161206e+00	1.161206e+00	1.161206e+00	1.161206e+00	1.161206e+00	1.161206e+00	1.161206e+00	1.161206e+00	1.161206e+00	1.161206e+00	1.161206e+00	1.161206e+00	1.161206e+00	1.161206e+00	1.161206e+00	1.161206e+00	1.161206e+00	1.161206e+00	1.161206e+00	1.161206e+00	1.161206e+00	1.161206e+00	1.161206e+00	1.161206e+00	1.161206e+00	1.161206e+00	1.161206e+00	1.161206e+00	1.161206e+00	1.161206e+00	1.149414e+00	1.161290e+00	1.165021e+00	1.162338e+00	1.160910e+00	1.160943e+00	1.161087e+00	1.161234e+00	1.161221e+00	1.161208e+00	1.161193e+00	1.161194e+00	1.161197e+00	1.161199e+00	1.161201e+00	1.161202e+00	1.161202e+00	1.161203e+00	1.161203e+00	1.161204e+00	1.161204e+00	1.161204e+00	1.161205e+00	1.161205e+00	1.161205e+00	1.161205e+00	1.161205e+00	1.161205e+00	1.161205e+00	1.161206e+00	1.161206e+00	1.161206e+00	1.161206e+00	1.161206e+00	1.161206e+00	1.161206e+00	1.161206e+00	1.161206e+00	1.161206e+00	1.161206e+00	1.161206e+00	1.161206e+00	1.161206e+00	1.161206e+00	1.161206e+00	1.161206e+00	1.161206e+00	1.161206e+00	1.161206e+00	1.161206e+00	1.161206e+00	1.161206e+00	1.161206e+00	1.161206e+00	1.161206e+00	1.161206e+00	1.161206e+00	1.161206e+00	1.161206e+00	1.161206e+00	1.161206e+00	1.161206e+00	1.161206e+00	1.161206e+00	1.161206e+00	1.161206e+00	1.161206e+00	1.161206e+00	1.161206e+00	1.161206e+00	1.161206e+00	1.161206e+00	1.161206e+00	1.161206e+00	1.161206e+00	1.133554e+00	1.142267e+00	1.162939e+00	1.164588e+00	1.162619e+00	1.160962e+00	1.160931e+00	1.161077e+00	1.161240e+00	1.161241e+00	1.161230e+00	1.161215e+00	1.161212e+00	1.161212e+00	1.161212e+00	1.161211e+00	1.161210e+00	1.161209e+00	1.161208e+00	1.161208e+00	1.161208e+00	1.161207e+00	1.161207e+00	1.161206e+00	1.161206e+00	1.161206e+00	1.161206e+00	1.161206e+00	1.161206e+00	1.161206e+00	1.161206e+00	1.161206e+00	1.161206e+00	1.161206e+00	1.161206e+00	1.161206e+00	1.161206e+00	1.161206e+00	1.161206e+00	1.161206e+00	1.161206e+00	1.161206e+00	1.161206e+00	1.161206e+00	1.161206e+00	1.161206e+00	1.161206e+00	1.161206e+00	1.161206e+00	1.161206e+00	1.161206e+00	1.161206e+00	1.161206e+00	1.161206e+00	1.161206e+00	1.161206e+00	1.161206e+00	1.161206e+00	1.161206e+00	1.161206e+00	1.161206e+00	1.161206e+00	1.161206e+00	1.161206e+00	1.161206e+00	1.161206e+00	1.161206e+00	1.161206e+00	1.161206e+00	1.161206e+00	1.161206e+00	1.161206e+00	1.161206e+00	1.161206e+00	1.161206e+00	1.184925e+00	1.124168e+00	1.141293e+00	1.162461e+00	1.164529e+00	1.162860e+00	1.161023e+00	1.160908e+00	1.161043e+00	1.161213e+00	1.161223e+00	1.161210e+00	1.161194e+00	1.161193e+00	1.161196e+00	1.161199e+00	1.161201e+00	1.161202e+00	1.161202e+00	1.161203e+00	1.161203e+00	1.161203e+00	1.161204e+00	1.161204e+00	1.161205e+00	1.161205e+00	1.161205e+00	1.161205e+00	1.161205e+00	1.161205e+00	1.161206e+00	1.161206e+00	1.161206e+00	1.161206e+00	1.161206e+00	1.161206e+00	1.161206e+00	1.161206e+00	1.161206e+00	1.161206e+00	1.161206e+00	1.161206e+00	1.161206e+00	1.161206e+00	1.161206e+00	1.161206e+00	1.161206e+00	1.161206e+00	1.161206e+00	1.161206e+00	1.161206e+00	1.161206e+00	1.161206e+00	1.161206e+00	1.161206e+00	1.161206e+00	1.161206e+00	1.161206e+00	1.161206e+00	1.161206e+00	1.161206e+00	1.161206e+00	1.161206e+00	1.161206e+00	1.161206e+00	1.161206e+00	1.161206e+00	1.161206e+00	1.161206e+00	1.161206e+00	1.161206e+00	1.161206e+00	1.161206e+00	1.161206e+00	1.161206e+00	1.416075e+00	1.191853e+00	1.122843e+00	1.139778e+00	1.161498e+00	1.164618e+00	1.163106e+00	1.161131e+00	1.160901e+00	1.161034e+00	1.161218e+00	1.161249e+00	1.161237e+00	1.161220e+00	1.161213e+00	1.161212e+00	1.161211e+00	1.161211e+00	1.161210e+00	1.161209e+00	1.161209e+00	1.161208e+00	1.161208e+00	1.161207e+00	1.161207e+00	1.161206e+00	1.161206e+00	1.161206e+00	1.161206e+00	1.161206e+00	1.161206e+00	1.161206e+00	1.161206e+00	1.161206e+00	1.161206e+00	1.161206e+00	1.161206e+00	1.161206e+00	1.161206e+00	1.161206e+00	1.161206e+00	1.161206e+00	1.161206e+00	1.161206e+00	1.161206e+00	1.161206e+00	1.161206e+00	1.161206e+00	1.161206e+00	1.161206e+00	1.161206e+00	1.161206e+00	1.161206e+00	1.161206e+00	1.161206e+00	1.161206e+00	1.161206e+00	1.161206e+00	1.161206e+00	1.161206e+00	1.161206e+00	1.161206e+00	1.161206e+00	1.161206e+00	1.161206e+00	1.161206e+00	1.161206e+00	1.161206e+00	1.161206e+00	1.161206e+00	1.161206e+00	1.161206e+00	1.161206e+00	1.161206e+00	1.161206e+00	1.713268e+00	1.469509e+00	1.197704e+00	1.124154e+00	1.137367e+00	1.160337e+00	1.164647e+00	1.163353e+00	1.161259e+00	1.160877e+00	1.160993e+00	1.161176e+00	1.161223e+00	1.161211e+00	1.161198e+00	1.161192e+00	1.161195e+00	1.161198e+00	1.161200e+00	1.161201e+00	1.161202e+00	1.161202e+00	1.161203e+00	1.161203e+00	1.161204e+00	1.161204e+00	1.161205e+00	1.161205e+00	1.161205e+00	1.161205e+00	1.161205e+00	1.161205e+00	1.161206e+00	1.161206e+00	1.161206e+00	1.161206e+00	1.161206e+00	1.161206e+00	1.161206e+00	1.161206e+00	1.161206e+00	1.161206e+00	1.161206e+00	1.161206e+00	1.161206e+00	1.161206e+00	1.161206e+00	1.161206e+00	1.161206e+00	1.161206e+00	1.161206e+00	1.161206e+00	1.161206e+00	1.161206e+00	1.161206e+00	1.161206e+00	1.161206e+00	1.161206e+00	1.161206e+00	1.161206e+00	1.161206e+00	1.161206e+00	1.161206e+00	1.161206e+00	1.161206e+00	1.161206e+00	1.161206e+00	1.161206e+00	1.161206e+00	1.161206e+00	1.161206e+00	1.161206e+00	1.161206e+00	1.161206e+00	1.161206e+00	1.758056e+00	1.724575e+00	1.497387e+00	1.210714e+00	1.125771e+00	1.134779e+00	1.158906e+00	1.164657e+00	1.163629e+00	1.161446e+00	1.160884e+00	1.160991e+00	1.161178e+00	1.161254e+00	1.161244e+00	1.161229e+00	1.161215e+00	1.161213e+00	1.161211e+00	1.161211e+00	1.161210e+00	1.161210e+00	1.161209e+00	1.161208e+00	1.161208e+00	1.161207e+00	1.161207e+00	1.161206e+00	1.161206e+00	1.161206e+00	1.161206e+00	1.161206e+00	1.161206e+00	1.161206e+00	1.161206e+00	1.161206e+00	1.161206e+00	1.161206e+00	1.161206e+00	1.161206e+00	1.161206e+00	1.161206e+00	1.161206e+00	1.161206e+00	1.161206e+00	1.161206e+00	1.161206e+00	1.161206e+00	1.161206e+00	1.161206e+00	1.161206e+00	1.161206e+00	1.161206e+00	1.161206e+00	1.161206e+00	1.161206e+00	1.161206e+00	1.161206e+00	1.161206e+00	1.161206e+00	1.161206e+00	1.161206e+00	1.161206e+00	1.161206e+00	1.161206e+00	1.161206e+00	1.161206e+00	1.161206e+00	1.161206e+00	1.161206e+00	1.161206e+00	1.161206e+00	1.161206e+00	1.161206e+00	1.161206e+00	1.698582e+00	1.737580e+00	1.733680e+00	1.525219e+00	1.227837e+00	1.128056e+00	1.131986e+00	1.157040e+00	1.164570e+00	1.163888e+00	1.161662e+00	1.160872e+00	1.160943e+00	1.161115e+00	1.161216e+00	1.161212e+00	1.161203e+00	1.161192e+00	1.161194e+00	1.161196e+00	1.161199e+00	1.161201e+00	1.161201e+00	1.161202e+00	1.161202e+00	1.161203e+00	1.161204e+00	1.161204e+00	1.161205e+00	1.161205e+00	1.161205e+00	1.161205e+00	1.161205e+00	1.161206e+00	1.161206e+00	1.161206e+00	1.161206e+00	1.161206e+00	1.161206e+00	1.161206e+00	1.161206e+00	1.161206e+00	1.161206e+00	1.161206e+00	1.161206e+00	1.161206e+00	1.161206e+00	1.161206e+00	1.161206e+00	1.161206e+00	1.161206e+00	1.161206e+00	1.161206e+00	1.161206e+00	1.161206e+00	1.161206e+00	1.161206e+00	1.161206e+00	1.161206e+00	1.161206e+00	1.161206e+00	1.161206e+00	1.161206e+00	1.161206e+00	1.161206e+00	1.161206e+00	1.161206e+00	1.161206e+00	1.161206e+00	1.161206e+00	1.161206e+00	1.161206e+00	1.161206e+00	1.161206e+00	1.161206e+00	1.684691e+00	1.694647e+00	1.732378e+00	1.741493e+00	1.555058e+00	1.249268e+00	1.131542e+00	1.129210e+00	1.154752e+00	1.164392e+00	1.164151e+00	1.161957e+00	1.160919e+00	1.160954e+00	1.161117e+00	1.161250e+00	1.161250e+00	1.161238e+00	1.161219e+00	1.161213e+00	1.161211e+00	1.161211e+00	1.161211e+00	1.161210e+00	1.161210e+00	1.161209e+00	1.161208e+00	1.161207e+00	1.161207e+00	1.161206e+00	1.161206e+00	1.161206e+00	1.161206e+00	1.161206e+00	1.161206e+00	1.161206e+00	1.161206e+00	1.161206e+00	1.161206e+00	1.161206e+00	1.161206e+00	1.161206e+00	1.161206e+00	1.161206e+00	1.161206e+00	1.161206e+00	1.161206e+00	1.161206e+00	1.161206e+00	1.161206e+00	1.161206e+00	1.161206e+00	1.161206e+00	1.161206e+00	1.161206e+00	1.161206e+00	1.161206e+00	1.161206e+00	1.161206e+00	1.161206e+00	1.161206e+00	1.161206e+00	1.161206e+00	1.161206e+00	1.161206e+00	1.161206e+00	1.161206e+00	1.161206e+00	1.161206e+00	1.161206e+00	1.161206e+00	1.161206e+00	1.161206e+00	1.161206e+00	1.161206e+00	1.692416e+00	1.686814e+00	1.691214e+00	1.727071e+00	1.747583e+00	1.586454e+00	1.275322e+00	1.136463e+00	1.126478e+00	1.151899e+00	1.164012e+00	1.164362e+00	1.162281e+00	1.160948e+00	1.160898e+00	1.161030e+00	1.161193e+00	1.161210e+00	1.161208e+00	1.161195e+00	1.161193e+00	1.161195e+00	1.161198e+00	1.161200e+00	1.161200e+00	1.161201e+00	1.161202e+00	1.161203e+00	1.161204e+00	1.161204e+00	1.161205e+00	1.161205e+00	1.161205e+00	1.161205e+00	1.161206e+00	1.161206e+00	1.161206e+00	1.161206e+00	1.161206e+00	1.161206e+00	1.161206e+00	1.161206e+00	1.161206e+00	1.161206e+00	1.161206e+00	1.161206e+00	1.161206e+00	1.161206e+00	1.161206e+00	1.161206e+00	1.161206e+00	1.161206e+00	1.161206e+00	1.161206e+00	1.161206e+00	1.161206e+00	1.161206e+00	1.161206e+00	1.161206e+00	1.161206e+00	1.161206e+00	1.161206e+00	1.161206e+00	1.161206e+00	1.161206e+00	1.161206e+00	1.161206e+00	1.161206e+00	1.161206e+00	1.161206e+00	1.161206e+00	1.161206e+00	1.161206e+00	1.161206e+00	1.161206e+00	1.696155e+00	1.693984e+00	1.687280e+00	1.688270e+00	1.720936e+00	1.751711e+00	1.618755e+00	1.306817e+00	1.143529e+00	1.124142e+00	1.148523e+00	1.163388e+00	1.164540e+00	1.162697e+00	1.161083e+00	1.160934e+00	1.161042e+00	1.161224e+00	1.161255e+00	1.161247e+00	1.161226e+00	1.161215e+00	1.161212e+00	1.161212e+00	1.161212e+00	1.161211e+00	1.161211e+00	1.161210e+00	1.161209e+00	1.161208e+00	1.161207e+00	1.161206e+00	1.161206e+00	1.161206e+00	1.161206e+00	1.161206e+00	1.161206e+00	1.161206e+00	1.161206e+00	1.161206e+00	1.161206e+00	1.161206e+00	1.161206e+00	1.161206e+00	1.161206e+00	1.161206e+00	1.161206e+00	1.161206e+00	1.161206e+00	1.161206e+00	1.161206e+00	1.161206e+00	1.161206e+00	1.161206e+00	1.161206e+00	1.161206e+00	1.161206e+00	1.161206e+00	1.161206e+00	1.161206e+00	1.161206e+00	1.161206e+00	1.161206e+00	1.161206e+00	1.161206e+00	1.161206e+00	1.161206e+00	1.161206e+00	1.161206e+00	1.161206e+00	1.161206e+00	1.161206e+00	1.161206e+00	1.161206e+00	1.161206e+00	1.694224e+00	1.695732e+00	1.694996e+00	1.688156e+00	1.685797e+00	1.714188e+00	1.753350e+00	1.650694e+00	1.343976e+00	1.153254e+00	1.122389e+00	1.144558e+00	1.162356e+00	1.164611e+00	1.163117e+00	1.161199e+00	1.160866e+00	1.160941e+00	1.161137e+00	1.161204e+00	1.161210e+00	1.161201e+00	1.161194e+00	1.161195e+00	1.161196e+00	1.161198e+00	1.161199e+00	1.161200e+00	1.161201e+00	1.161202e+00	1.161203e+00	1.161204e+00	1.161205e+00	1.161205e+00	1.161205e+00	1.161205e+00	1.161206e+00	1.161206e+00	1.161206e+00	1.161206e+00	1.161206e+00	1.161206e+00	1.161206e+00	1.161206e+00	1.161206e+00	1.161206e+00	1.161206e+00	1.161206e+00	1.161206e+00	1.161206e+00	1.161206e+00	1.161206e+00	1.161206e+00	1.161206e+00	1.161206e+00	1.161206e+00	1.161206e+00	1.161206e+00	1.161206e+00	1.161206e+00	1.161206e+00	1.161206e+00	1.161206e+00	1.161206e+00	1.161206e+00	1.161206e+00	1.161206e+00	1.161206e+00	1.161206e+00	1.161206e+00	1.161206e+00	1.161206e+00	1.161206e+00	1.161206e+00	1.161206e+00	1.693696e+00	1.694116e+00	1.695835e+00	1.696027e+00	1.689555e+00	1.684075e+00	1.707167e+00	1.752402e+00	1.681289e+00	1.387335e+00	1.166818e+00	1.121784e+00	1.140157e+00	1.160815e+00	1.164599e+00	1.163617e+00	1.161504e+00	1.160945e+00	1.160979e+00	1.161162e+00	1.161252e+00	1.161252e+00	1.161237e+00	1.161219e+00	1.161214e+00	1.161213e+00	1.161213e+00	1.161213e+00	1.161212e+00	1.161210e+00	1.161209e+00	1.161208e+00	1.161207e+00	1.161206e+00	1.161206e+00	1.161206e+00	1.161206e+00	1.161206e+00	1.161206e+00	1.161206e+00	1.161206e+00	1.161206e+00	1.161206e+00	1.161206e+00	1.161206e+00	1.161206e+00	1.161206e+00	1.161206e+00	1.161206e+00	1.161206e+00	1.161206e+00	1.161206e+00	1.161206e+00	1.161206e+00	1.161206e+00	1.161206e+00	1.161206e+00	1.161206e+00	1.161206e+00	1.161206e+00	1.161206e+00	1.161206e+00	1.161206e+00	1.161206e+00	1.161206e+00	1.161206e+00	1.161206e+00	1.161206e+00	1.161206e+00	1.161206e+00	1.161206e+00	1.161206e+00	1.161206e+00	1.161206e+00	1.161206e+00	1.694398e+00	1.693971e+00	1.694007e+00	1.695749e+00	1.696869e+00	1.691224e+00	1.683088e+00	1.700016e+00	1.748528e+00	1.708834e+00	1.436465e+00	1.185315e+00	1.122820e+00	1.135416e+00	1.158533e+00	1.164454e+00	1.163997e+00	1.161764e+00	1.160892e+00	1.160870e+00	1.161042e+00	1.161181e+00	1.161206e+00	1.161208e+00	1.161196e+00	1.161194e+00	1.161194e+00	1.161195e+00	1.161197e+00	1.161199e+00	1.161200e+00	1.161202e+00	1.161203e+00	1.