# vtk DataFile Version 3.0
vtk output
ASCII
DATASET UNSTRUCTURED_GRID
POINTS 3750 float
1.500000e+00	1.000000e+00	0.0	1.479592e+00	1.000000e+00	0.0	1.459184e+00	1.000000e+00	0.0	1.438776e+00	1.000000e+00	0.0	1.418367e+00	1.000000e+00	0.0	1.397959e+00	1.000000e+00	0.0	1.377551e+00	1.000000e+00	0.0	1.357143e+00	1.000000e+00	0.0	1.336735e+00	1.000000e+00	0.0	1.316327e+00	1.000000e+00	0.0	1.295918e+00	1.000000e+00	0.0	1.275510e+00	1.000000e+00	0.0	1.255102e+00	1.000000e+00	0.0	1.234694e+00	1.000000e+00	0.0	1.214286e+00	1.000000e+00	0.0	1.193878e+00	1.000000e+00	0.0	1.173469e+00	1.000000e+00	0.0	1.153061e+00	1.000000e+00	0.0	1.132653e+00	1.000000e+00	0.0	1.112245e+00	1.000000e+00	0.0	1.091837e+00	1.000000e+00	0.0	1.071429e+00	1.000000e+00	0.0	1.051020e+00	1.000000e+00	0.0	1.030612e+00	1.000000e+00	0.0	1.010204e+00	1.000000e+00	0.0	9.897959e-01	1.000000e+00	0.0	9.693878e-01	1.000000e+00	0.0	9.489796e-01	1.000000e+00	0.0	9.285714e-01	1.000000e+00	0.0	9.081633e-01	1.000000e+00	0.0	8.877551e-01	1.000000e+00	0.0	8.673469e-01	1.000000e+00	0.0	8.469388e-01	1.000000e+00	0.0	8.265306e-01	1.000000e+00	0.0	8.061224e-01	1.000000e+00	0.0	7.857143e-01	1.000000e+00	0.0	7.653061e-01	1.000000e+00	0.0	7.448980e-01	1.000000e+00	0.0	7.244898e-01	1.000000e+00	0.0	7.040816e-01	1.000000e+00	0.0	6.836735e-01	1.000000e+00	0.0	6.632653e-01	1.000000e+00	0.0	6.428571e-01	1.000000e+00	0.0	6.224490e-01	1.000000e+00	0.0	6.020408e-01	1.000000e+00	0.0	5.816327e-01	1.000000e+00	0.0	5.612245e-01	1.000000e+00	0.0	5.408163e-01	1.000000e+00	0.0	5.204082e-01	1.000000e+00	0.0	5.000000e-01	1.000000e+00	0.0	4.800000e-01	1.000000e+00	0.0	4.600000e-01	1.000000e+00	0.0	4.400000e-01	1.000000e+00	0.0	4.200000e-01	1.000000e+00	0.0	4.000000e-01	1.000000e+00	0.0	3.800000e-01	1.000000e+00	0.0	3.600000e-01	1.000000e+00	0.0	3.400000e-01	1.000000e+00	0.0	3.200000e-01	1.000000e+00	0.0	3.000000e-01	1.000000e+00	0.0	2.800000e-01	1.000000e+00	0.0	2.600000e-01	1.000000e+00	0.0	2.400000e-01	1.000000e+00	0.0	2.200000e-01	1.000000e+00	0.0	2.000000e-01	1.000000e+00	0.0	1.800000e-01	1.000000e+00	0.0	1.600000e-01	1.000000e+00	0.0	1.400000e-01	1.000000e+00	0.0	1.200000e-01	1.000000e+00	0.0	1.000000e-01	1.000000e+00	0.0	8.000000e-02	1.000000e+00	0.0	6.000000e-02	1.000000e+00	0.0	4.000000e-02	1.000000e+00	0.0	2.000000e-02	1.000000e+00	0.0	0.000000e+00	1.000000e+00	0.0	1.500000e+00	9.831903e-01	0.0	1.479592e+00	9.831169e-01	0.0	1.459184e+00	9.830435e-01	0.0	1.438776e+00	9.829700e-01	0.0	1.418367e+00	9.828966e-01	0.0	1.397959e+00	9.828232e-01	0.0	1.377551e+00	9.827497e-01	0.0	1.357143e+00	9.826763e-01	0.0	1.336735e+00	9.826028e-01	0.0	1.316327e+00	9.825294e-01	0.0	1.295918e+00	9.824560e-01	0.0	1.275510e+00	9.823825e-01	0.0	1.255102e+00	9.823091e-01	0.0	1.234694e+00	9.822356e-01	0.0	1.214286e+00	9.821622e-01	0.0	1.193878e+00	9.820888e-01	0.0	1.173469e+00	9.820153e-01	0.0	1.153061e+00	9.819419e-01	0.0	1.132653e+00	9.818684e-01	0.0	1.112245e+00	9.817950e-01	0.0	1.091837e+00	9.817216e-01	0.0	1.071429e+00	9.816481e-01	0.0	1.051020e+00	9.815747e-01	0.0	1.030612e+00	9.815013e-01	0.0	1.010204e+00	9.814278e-01	0.0	9.897959e-01	9.813544e-01	0.0	9.693878e-01	9.812809e-01	0.0	9.489796e-01	9.812075e-01	0.0	9.285714e-01	9.811341e-01	0.0	9.081633e-01	9.810606e-01	0.0	8.877551e-01	9.809872e-01	0.0	8.673469e-01	9.809137e-01	0.0	8.469388e-01	9.808403e-01	0.0	8.265306e-01	9.807669e-01	0.0	8.061224e-01	9.806934e-01	0.0	7.857143e-01	9.806200e-01	0.0	7.653061e-01	9.805465e-01	0.0	7.448980e-01	9.804731e-01	0.0	7.244898e-01	9.803997e-01	0.0	7.040816e-01	9.803262e-01	0.0	6.836735e-01	9.802528e-01	0.0	6.632653e-01	9.801793e-01	0.0	6.428571e-01	9.801059e-01	0.0	6.224490e-01	9.800325e-01	0.0	6.020408e-01	9.799590e-01	0.0	5.816327e-01	9.798856e-01	0.0	5.612245e-01	9.798122e-01	0.0	5.408163e-01	9.797387e-01	0.0	5.204082e-01	9.796653e-01	0.0	5.000000e-01	9.795918e-01	0.0	4.800000e-01	9.795918e-01	0.0	4.600000e-01	9.795918e-01	0.0	4.400000e-01	9.795918e-01	0.0	4.200000e-01	9.795918e-01	0.0	4.000000e-01	9.795918e-01	0.0	3.800000e-01	9.795918e-01	0.0	3.600000e-01	9.795918e-01	0.0	3.400000e-01	9.795918e-01	0.0	3.200000e-01	9.795918e-01	0.0	3.000000e-01	9.795918e-01	0.0	2.800000e-01	9.795918e-01	0.0	2.600000e-01	9.795918e-01	0.0	2.400000e-01	9.795918e-01	0.0	2.200000e-01	9.795918e-01	0.0	2.000000e-01	9.795918e-01	0.0	1.800000e-01	9.795918e-01	0.0	1.600000e-01	9.795918e-01	0.0	1.400000e-01	9.795918e-01	0.0	1.200000e-01	9.795918e-01	0.0	1.000000e-01	9.795918e-01	0.0	8.000000e-02	9.795918e-01	0.0	6.000000e-02	9.795918e-01	0.0	4.000000e-02	9.795918e-01	0.0	2.000000e-02	9.795918e-01	0.0	0.000000e+00	9.795918e-01	0.0	1.500000e+00	9.663807e-01	0.0	1.479592e+00	9.662338e-01	0.0	1.459184e+00	9.660869e-01	0.0	1.438776e+00	9.659401e-01	0.0	1.418367e+00	9.657932e-01	0.0	1.397959e+00	9.656463e-01	0.0	1.377551e+00	9.654994e-01	0.0	1.357143e+00	9.653525e-01	0.0	1.336735e+00	9.652057e-01	0.0	1.316327e+00	9.650588e-01	0.0	1.295918e+00	9.649119e-01	0.0	1.275510e+00	9.647650e-01	0.0	1.255102e+00	9.646182e-01	0.0	1.234694e+00	9.644713e-01	0.0	1.214286e+00	9.643244e-01	0.0	1.193878e+00	9.641775e-01	0.0	1.173469e+00	9.640306e-01	0.0	1.153061e+00	9.638838e-01	0.0	1.132653e+00	9.637369e-01	0.0	1.112245e+00	9.635900e-01	0.0	1.091837e+00	9.634431e-01	0.0	1.071429e+00	9.632963e-01	0.0	1.051020e+00	9.631494e-01	0.0	1.030612e+00	9.630025e-01	0.0	1.010204e+00	9.628556e-01	0.0	9.897959e-01	9.627087e-01	0.0	9.693878e-01	9.625619e-01	0.0	9.489796e-01	9.624150e-01	0.0	9.285714e-01	9.622681e-01	0.0	9.081633e-01	9.621212e-01	0.0	8.877551e-01	9.619744e-01	0.0	8.673469e-01	9.618275e-01	0.0	8.469388e-01	9.616806e-01	0.0	8.265306e-01	9.615337e-01	0.0	8.061224e-01	9.613868e-01	0.0	7.857143e-01	9.612400e-01	0.0	7.653061e-01	9.610931e-01	0.0	7.448980e-01	9.609462e-01	0.0	7.244898e-01	9.607993e-01	0.0	7.040816e-01	9.606525e-01	0.0	6.836735e-01	9.605056e-01	0.0	6.632653e-01	9.603587e-01	0.0	6.428571e-01	9.602118e-01	0.0	6.224490e-01	9.600649e-01	0.0	6.020408e-01	9.599181e-01	0.0	5.816327e-01	9.597712e-01	0.0	5.612245e-01	9.596243e-01	0.0	5.408163e-01	9.594774e-01	0.0	5.204082e-01	9.593306e-01	0.0	5.000000e-01	9.591837e-01	0.0	4.800000e-01	9.591837e-01	0.0	4.600000e-01	9.591837e-01	0.0	4.400000e-01	9.591837e-01	0.0	4.200000e-01	9.591837e-01	0.0	4.000000e-01	9.591837e-01	0.0	3.800000e-01	9.591837e-01	0.0	3.600000e-01	9.591837e-01	0.0	3.400000e-01	9.591837e-01	0.0	3.200000e-01	9.591837e-01	0.0	3.000000e-01	9.591837e-01	0.0	2.800000e-01	9.591837e-01	0.0	2.600000e-01	9.591837e-01	0.0	2.400000e-01	9.591837e-01	0.0	2.200000e-01	9.591837e-01	0.0	2.000000e-01	9.591837e-01	0.0	1.800000e-01	9.591837e-01	0.0	1.600000e-01	9.591837e-01	0.0	1.400000e-01	9.591837e-01	0.0	1.200000e-01	9.591837e-01	0.0	1.000000e-01	9.591837e-01	0.0	8.000000e-02	9.591837e-01	0.0	6.000000e-02	9.591837e-01	0.0	4.000000e-02	9.591837e-01	0.0	2.000000e-02	9.591837e-01	0.0	0.000000e+00	9.591837e-01	0.0	1.500000e+00	9.495710e-01	0.0	1.479592e+00	9.493507e-01	0.0	1.459184e+00	9.491304e-01	0.0	1.438776e+00	9.489101e-01	0.0	1.418367e+00	9.486898e-01	0.0	1.397959e+00	9.484695e-01	0.0	1.377551e+00	9.482491e-01	0.0	1.357143e+00	9.480288e-01	0.0	1.336735e+00	9.478085e-01	0.0	1.316327e+00	9.475882e-01	0.0	1.295918e+00	9.473679e-01	0.0	1.275510e+00	9.471476e-01	0.0	1.255102e+00	9.469272e-01	0.0	1.234694e+00	9.467069e-01	0.0	1.214286e+00	9.464866e-01	0.0	1.193878e+00	9.462663e-01	0.0	1.173469e+00	9.460460e-01	0.0	1.153061e+00	9.458257e-01	0.0	1.132653e+00	9.456053e-01	0.0	1.112245e+00	9.453850e-01	0.0	1.091837e+00	9.451647e-01	0.0	1.071429e+00	9.449444e-01	0.0	1.051020e+00	9.447241e-01	0.0	1.030612e+00	9.445038e-01	0.0	1.010204e+00	9.442834e-01	0.0	9.897959e-01	9.440631e-01	0.0	9.693878e-01	9.438428e-01	0.0	9.489796e-01	9.436225e-01	0.0	9.285714e-01	9.434022e-01	0.0	9.081633e-01	9.431818e-01	0.0	8.877551e-01	9.429615e-01	0.0	8.673469e-01	9.427412e-01	0.0	8.469388e-01	9.425209e-01	0.0	8.265306e-01	9.423006e-01	0.0	8.061224e-01	9.420803e-01	0.0	7.857143e-01	9.418599e-01	0.0	7.653061e-01	9.416396e-01	0.0	7.448980e-01	9.414193e-01	0.0	7.244898e-01	9.411990e-01	0.0	7.040816e-01	9.409787e-01	0.0	6.836735e-01	9.407584e-01	0.0	6.632653e-01	9.405380e-01	0.0	6.428571e-01	9.403177e-01	0.0	6.224490e-01	9.400974e-01	0.0	6.020408e-01	9.398771e-01	0.0	5.816327e-01	9.396568e-01	0.0	5.612245e-01	9.394365e-01	0.0	5.408163e-01	9.392161e-01	0.0	5.204082e-01	9.389958e-01	0.0	5.000000e-01	9.387755e-01	0.0	4.800000e-01	9.387755e-01	0.0	4.600000e-01	9.387755e-01	0.0	4.400000e-01	9.387755e-01	0.0	4.200000e-01	9.387755e-01	0.0	4.000000e-01	9.387755e-01	0.0	3.800000e-01	9.387755e-01	0.0	3.600000e-01	9.387755e-01	0.0	3.400000e-01	9.387755e-01	0.0	3.200000e-01	9.387755e-01	0.0	3.000000e-01	9.387755e-01	0.0	2.800000e-01	9.387755e-01	0.0	2.600000e-01	9.387755e-01	0.0	2.400000e-01	9.387755e-01	0.0	2.200000e-01	9.387755e-01	0.0	2.000000e-01	9.387755e-01	0.0	1.800000e-01	9.387755e-01	0.0	1.600000e-01	9.387755e-01	0.0	1.400000e-01	9.387755e-01	0.0	1.200000e-01	9.387755e-01	0.0	1.000000e-01	9.387755e-01	0.0	8.000000e-02	9.387755e-01	0.0	6.000000e-02	9.387755e-01	0.0	4.000000e-02	9.387755e-01	0.0	2.000000e-02	9.387755e-01	0.0	0.000000e+00	9.387755e-01	0.0	1.500000e+00	9.327614e-01	0.0	1.479592e+00	9.324676e-01	0.0	1.459184e+00	9.321739e-01	0.0	1.438776e+00	9.318801e-01	0.0	1.418367e+00	9.315864e-01	0.0	1.397959e+00	9.312926e-01	0.0	1.377551e+00	9.309989e-01	0.0	1.357143e+00	9.307051e-01	0.0	1.336735e+00	9.304113e-01	0.0	1.316327e+00	9.301176e-01	0.0	1.295918e+00	9.298238e-01	0.0	1.275510e+00	9.295301e-01	0.0	1.255102e+00	9.292363e-01	0.0	1.234694e+00	9.289426e-01	0.0	1.214286e+00	9.286488e-01	0.0	1.193878e+00	9.283550e-01	0.0	1.173469e+00	9.280613e-01	0.0	1.153061e+00	9.277675e-01	0.0	1.132653e+00	9.274738e-01	0.0	1.112245e+00	9.271800e-01	0.0	1.091837e+00	9.268863e-01	0.0	1.071429e+00	9.265925e-01	0.0	1.051020e+00	9.262988e-01	0.0	1.030612e+00	9.260050e-01	0.0	1.010204e+00	9.257112e-01	0.0	9.897959e-01	9.254175e-01	0.0	9.693878e-01	9.251237e-01	0.0	9.489796e-01	9.248300e-01	0.0	9.285714e-01	9.245362e-01	0.0	9.081633e-01	9.242425e-01	0.0	8.877551e-01
[...]
POINT_DATA 3750

SCALARS Conservative_1 float 1
LOOKUP_TABLE default
1.161246e+00	1.161352e+00	1.161285e+00	1.161207e+00	1.161189e+00	1.161193e+00	1.161202e+00	1.161207e+00	1.161207e+00	1.161206e+00	1.161206e+00	1.161205e+00	1.161205e+00	1.161205e+00	1.161206e+00	1.161206e+00	1.161206e+00	1.161206e+00	1.161206e+00	1.161206e+00	1.161206e+00	1.161206e+00	1.161206e+00	1.161206e+00	1.161206e+00	1.161206e+00	1.161206e+00	1.161206e+00	1.161206e+00	1.161206e+00	1.161206e+00	1.161206e+00	1.161206e+00	1.161206e+00	1.161206e+00	1.161206e+00	1.161206e+00	1.161206e+00	1.161206e+00	1.161206e+00	1.161206e+00	1.161206e+00	1.161206e+00	1.161206e+00	1.161206e+00	1.161206e+00	1.161206e+00	1.161206e+00	1.161206e+00	1.161206e+00	1.161206e+00	1.161206e+00	1.161206e+00	1.161206e+00	1.161206e+00	1.161206e+00	1.161206e+00	1.161206e+00	1.161206e+00	1.161206e+00	1.161206e+00	1.161206e+00	1.161206e+00	1.161206e+00	1.161206e+00	1.161206e+00	1.161206e+00	1.161206e+00	1.161206e+00	1.161206e+00	1.161206e+00	1.161206e+00	1.161206e+00	1.161206e+00	1.161206e+00	1.161063e+00	1.161213e+00	1.161267e+00	1.161234e+00	1.161208e+00	1.161200e+00	1.161201e+00	1.161204e+00	1.161206e+00	1.161206e+00	1.161206e+00	1.161206e+00	1.161205e+00	1.161205e+00	1.161205e+00	1.161206e+00	1.161206e+00	1.161206e+00	1.161206e+00	1.161206e+00	1.161206e+00	1.161206e+00	1.161206e+00	1.161206e+00	1.161206e+00	1.161206e+00	1.161206e+00	1.161206e+00	1.161206e+00	1.161206e+00	1.161206e+00	1.161206e+00	1.161206e+00	1.161206e+00	1.161206e+00	1.161206e+00	1.161206e+00	1.161206e+00	1.161206e+00	1.161206e+00	1.161206e+00	1.161206e+00	1.161206e+00	1.161206e+00	1.161206e+00	1.161206e+00	1.161206e+00	1.161206e+00	1.161206e+00	1.161206e+00	1.161206e+00	1.161206e+00	1.161206e+00	1.161206e+00	1.161206e+00	1.161206e+00	1.161206e+00	1.161206e+00	1.161206e+00	1.161206e+00	1.161206e+00	1.161206e+00	1.161206e+00	1.161206e+00	1.161206e+00	1.161206e+00	1.161206e+00	1.161206e+00	1.161206e+00	1.161206e+00	1.161206e+00	1.161206e+00	1.161206e+00	1.161206e+00	1.161206e+00	1.160828e+00	1.160967e+00	1.161200e+00	1.161263e+00	1.161240e+00	1.161214e+00	1.161201e+00	1.161200e+00	1.161203e+00	1.161205e+00	1.161206e+00	1.161206e+00	1.161206e+00	1.161206e+00	1.161205e+00	1.161205e+00	1.161206e+00	1.161206e+00	1.161206e+00	1.161206e+00	1.161206e+00	1.161206e+00	1.161206e+00	1.161206e+00	1.161206e+00	1.161206e+00	1.161206e+00	1.161206e+00	1.161206e+00	1.161206e+00	1.161206e+00	1.161206e+00	1.161206e+00	1.161206e+00	1.161206e+00	1.161206e+00	1.161206e+00	1.161206e+00	1.161206e+00	1.161206e+00	1.161206e+00	1.161206e+00	1.161206e+00	1.161206e+00	1.161206e+00	1.161206e+00	1.161206e+00	1.161206e+00	1.161206e+00	1.161206e+00	1.161206e+00	1.161206e+00	1.161206e+00	1.161206e+00	1.161206e+00	1.161206e+00	1.161206e+00	1.161206e+00	1.161206e+00	1.161206e+00	1.161206e+00	1.161206e+00	1.161206e+00	1.161206e+00	1.161206e+00	1.161206e+00	1.161206e+00	1.161206e+00	1.161206e+00	1.161206e+00	1.161206e+00	1.161206e+00	1.161206e+00	1.161206e+00	1.161206e+00	1.161030e+00	1.160719e+00	1.160960e+00	1.161208e+00	1.161262e+00	1.161244e+00	1.161215e+00	1.161201e+00	1.161200e+00	1.161203e+00	1.161205e+00	1.161206e+00	1.161206e+00	1.161206e+00	1.161206e+00	1.161205e+00	1.161205e+00	1.161206e+00	1.161206e+00	1.161206e+00	1.161206e+00	1.161206e+00	1.161206e+00	1.161206e+00	1.161206e+00	1.161206e+00	1.161206e+00	1.161206e+00	1.161206e+00	1.161206e+00	1.161206e+00	1.161206e+00	1.161206e+00	1.161206e+00	1.161206e+00	1.161206e+00	1.161206e+00	1.161206e+00	1.161206e+00	1.161206e+00	1.161206e+00	1.161206e+00	1.161206e+00	1.161206e+00	1.161206e+00	1.161206e+00	1.161206e+00	1.161206e+00	1.161206e+00	1.161206e+00	1.161206e+00	1.161206e+00	1.161206e+00	1.161206e+00	1.161206e+00	1.161206e+00	1.161206e+00	1.161206e+00	1.161206e+00	1.161206e+00	1.161206e+00	1.161206e+00	1.161206e+00	1.161206e+00	1.161206e+00	1.161206e+00	1.161206e+00	1.161206e+00	1.161206e+00	1.161206e+00	1.161206e+00	1.161206e+00	1.161206e+00	1.161206e+00	1.161206e+00	1.162337e+00	1.161057e+00	1.160669e+00	1.160978e+00	1.161194e+00	1.161261e+00	1.161246e+00	1.161216e+00	1.161202e+00	1.161200e+00	1.161203e+00	1.161205e+00	1.161206e+00	1.161206e+00	1.161206e+00	1.161206e+00	1.161205e+00	1.161205e+00	1.161206e+00	1.161206e+00	1.161206e+00	1.161206e+00	1.161206e+00	1.161206e+00	1.161206e+00	1.161206e+00	1.161206e+00	1.161206e+00	1.161206e+00	1.161206e+00	1.161206e+00	1.161206e+00	1.161206e+00	1.161206e+00	1.161206e+00	1.161206e+00	1.161206e+00	1.161206e+00	1.161206e+00	1.161206e+00	1.161206e+00	1.161206e+00	1.161206e+00	1.161206e+00	1.161206e+00	1.161206e+00	1.161206e+00	1.161206e+00	1.161206e+00	1.161206e+00	1.161206e+00	1.161206e+00	1.161206e+00	1.161206e+00	1.161206e+00	1.161206e+00	1.161206e+00	1.161206e+00	1.161206e+00	1.161206e+00	1.161206e+00	1.161206e+00	1.161206e+00	1.161206e+00	1.161206e+00	1.161206e+00	1.161206e+00	1.161206e+00	1.161206e+00	1.161206e+00	1.161206e+00	1.161206e+00	1.161206e+00	1.161206e+00	1.161206e+00	1.164422e+00	1.162752e+00	1.160957e+00	1.160696e+00	1.160962e+00	1.161182e+00	1.161261e+00	1.161247e+00	1.161218e+00	1.161202e+00	1.161200e+00	1.161202e+00	1.161205e+00	1.161206e+00	1.161206e+00	1.161206e+00	1.161206e+00	1.161205e+00	1.161205e+00	1.161206e+00	1.161206e+00	1.161206e+00	1.161206e+00	1.161206e+00	1.161206e+00	1.161206e+00	1.161206e+00	1.161206e+00	1.161206e+00	1.161206e+00	1.161206e+00	1.161206e+00	1.161206e+00	1.161206e+00	1.161206e+00	1.161206e+00	1.161206e+00	1.161206e+00	1.161206e+00	1.161206e+00	1.161206e+00	1.161206e+00	1.161206e+00	1.161206e+00	1.161206e+00	1.161206e+00	1.161206e+00	1.161206e+00	1.161206e+00	1.161206e+00	1.161206e+00	1.161206e+00	1.161206e+00	1.161206e+00	1.161206e+00	1.161206e+00	1.161206e+00	1.161206e+00	1.161206e+00	1.161206e+00	1.161206e+00	1.161206e+00	1.161206e+00	1.161206e+00	1.161206e+00	1.161206e+00	1.161206e+00	1.161206e+00	1.161206e+00	1.161206e+00	1.161206e+00	1.161206e+00	1.161206e+00	1.161206e+00	1.161206e+00	1.163955e+00	1.165222e+00	1.162739e+00	1.160980e+00	1.160713e+00	1.160937e+00	1.161173e+00	1.161258e+00	1.161249e+00	1.161220e+00	1.161203e+00	1.161200e+00	1.161202e+00	1.161205e+00	1.161206e+00	1.161206e+00	1.161206e+00	1.161206e+00	1.161205e+00	1.161205e+00	1.161206e+00	1.161206e+00	1.161206e+00	1.161206e+00	1.161206e+00	1.161206e+00	1.161206e+00	1.161206e+00	1.161206e+00	1.161206e+00	1.161206e+00	1.161206e+00	1.161206e+00	1.161206e+00	1.161206e+00	1.161206e+00	1.161206e+00	1.161206e+00	1.161206e+00	1.161206e+00	1.161206e+00	1.161206e+00	1.161206e+00	1.161206e+00	1.161206e+00	1.161206e+00	1.161206e+00	1.161206e+00	1.161206e+00	1.161206e+00	1.161206e+00	1.161206e+00	1.161206e+00	1.161206e+00	1.161206e+00	1.161206e+00	1.161206e+00	1.161206e+00	1.161206e+00	1.161206e+00	1.161206e+00	1.161206e+00	1.161206e+00	1.161206e+00	1.161206e+00	1.161206e+00	1.161206e+00	1.161206e+00	1.161206e+00	1.161206e+00	1.161206e+00	1.161206e+00	1.161206e+00	1.161206e+00	1.161206e+00	1.154703e+00	1.164112e+00	1.165547e+00	1.162718e+00	1.161085e+00	1.160699e+00	1.160918e+00	1.161160e+00	1.161255e+00	1.161252e+00	1.161223e+00	1.161205e+00	1.161200e+00	1.161202e+00	1.161204e+00	1.161206e+00	1.161206e+00	1.161206e+00	1.161206e+00	1.161205e+00	1.161205e+00	1.161206e+00	1.161206e+00	1.161206e+00	1.161206e+00	1.161206e+00	1.161206e+00	1.161206e+00	1.161206e+00	1.161206e+00	1.161206e+00	1.161206e+00	1.161206e+00	1.161206e+00	1.161206e+00	1.161206e+00	1.161206e+00	1.161206e+00	1.161206e+00	1.161206e+00	1.161206e+00	1.161206e+00	1.161206e+00	1.161206e+00	1.161206e+00	1.161206e+00	1.161206e+00	1.161206e+00	1.161206e+00	1.161206e+00	1.161206e+00	1.161206e+00	1.161206e+00	1.161206e+00	1.161206e+00	1.161206e+00	1.161206e+00	1.161206e+00	1.161206e+00	1.161206e+00	1.161206e+00	1.161206e+00	1.161206e+00	1.161206e+00	1.161206e+00	1.161206e+00	1.161206e+00	1.161206e+00	1.161206e+00	1.161206e+00	1.161206e+00	1.161206e+00	1.161206e+00	1.161206e+00	1.161206e+00	1.135869e+00	1.151896e+00	1.164788e+00	1.165379e+00	1.162919e+00	1.161150e+00	1.160700e+00	1.160896e+00	1.161143e+00	1.161251e+00	1.161254e+00	1.161226e+00	1.161206e+00	1.161200e+00	1.161202e+00	1.161204e+00	1.161206e+00	1.161206e+00	1.161206e+00	1.161206e+00	1.161206e+00	1.161205e+00	1.161206e+00	1.161206e+00	1.161206e+00	1.161206e+00	1.161206e+00	1.161206e+00	1.161206e+00	1.161206e+00	1.161206e+00	1.161206e+00	1.161206e+00	1.161206e+00	1.161206e+00	1.161206e+00	1.161206e+00	1.161206e+00	1.161206e+00	1.161206e+00	1.161206e+00	1.161206e+00	1.161206e+00	1.161206e+00	1.161206e+00	1.161206e+00	1.161206e+00	1.161206e+00	1.161206e+00	1.161206e+00	1.161206e+00	1.161206e+00	1.161206e+00	1.161206e+00	1.161206e+00	1.161206e+00	1.161206e+00	1.161206e+00	1.161206e+00	1.161206e+00	1.161206e+00	1.161206e+00	1.161206e+00	1.161206e+00	1.161206e+00	1.161206e+00	1.161206e+00	1.161206e+00	1.161206e+00	1.161206e+00	1.161206e+00	1.161206e+00	1.161206e+00	1.161206e+00	1.161206e+00	1.132420e+00	1.128844e+00	1.152205e+00	1.164259e+00	1.165483e+00	1.163102e+00	1.161236e+00	1.160705e+00	1.160870e+00	1.161124e+00	1.161245e+00	1.161256e+00	1.161229e+00	1.161208e+00	1.161201e+00	1.161201e+00	1.161204e+00	1.161205e+00	1.161206e+00	1.161206e+00	1.161206e+00	1.161206e+00	1.161205e+00	1.161206e+00	1.161206e+00	1.161206e+00	1.161206e+00	1.161206e+00	1.161206e+00	1.161206e+00	1.161206e+00	1.161206e+00	1.161206e+00	1.161206e+00	1.161206e+00	1.161206e+00	1.161206e+00	1.161206e+00	1.161206e+00	1.161206e+00	1.161206e+00	1.161206e+00	1.161206e+00	1.161206e+00	1.161206e+00	1.161206e+00	1.161206e+00	1.161206e+00	1.161206e+00	1.161206e+00	1.161206e+00	1.161206e+00	1.161206e+00	1.161206e+00	1.161206e+00	1.161206e+00	1.161206e+00	1.161206e+00	1.161206e+00	1.161206e+00	1.161206e+00	1.161206e+00	1.161206e+00	1.161206e+00	1.161206e+00	1.161206e+00	1.161206e+00	1.161206e+00	1.161206e+00	1.161206e+00	1.161206e+00	1.161206e+00	1.161206e+00	1.161206e+00	1.161206e+00	1.210584e+00	1.127673e+00	1.127781e+00	1.151146e+00	1.163748e+00	1.165596e+00	1.163302e+00	1.161346e+00	1.160716e+00	1.160843e+00	1.161101e+00	1.161237e+00	1.161257e+00	1.161233e+00	1.161210e+00	1.161201e+00	1.161201e+00	1.161204e+00	1.161205e+00	1.161206e+00	1.161206e+00	1.161206e+00	1.161206e+00	1.161205e+00	1.161205e+00	1.161206e+00	1.161206e+00	1.161206e+00	1.161206e+00	1.161206e+00	1.161206e+00	1.161206e+00	1.161206e+00	1.161206e+00	1.161206e+00	1.161206e+00	1.161206e+00	1.161206e+00	1.161206e+00	1.161206e+00	1.161206e+00	1.161206e+00	1.161206e+00	1.161206e+00	1.161206e+00	1.161206e+00	1.161206e+00	1.161206e+00	1.161206e+00	1.161206e+00	1.161206e+00	1.161206e+00	1.161206e+00	1.161206e+00	1.161206e+00	1.161206e+00	1.161206e+00	1.161206e+00	1.161206e+00	1.161206e+00	1.161206e+00	1.161206e+00	1.161206e+00	1.161206e+00	1.161206e+00	1.161206e+00	1.161206e+00	1.161206e+00	1.161206e+00	1.161206e+00	1.161206e+00	1.161206e+00	1.161206e+00	1.161206e+00	1.161206e+00	1.422520e+00	1.224620e+00	1.127350e+00	1.126930e+00	1.149572e+00	1.163202e+00	1.165675e+00	1.163533e+00	1.161479e+00	1.160736e+00	1.160816e+00	1.161074e+00	1.161226e+00	1.161257e+00	1.161236e+00	1.161213e+00	1.161202e+00	1.161201e+00	1.161203e+00	1.161205e+00	1.161206e+00	1.161206e+00	1.161206e+00	1.161206e+00	1.161205e+00	1.161205e+00	1.161206e+00	1.161206e+00	1.161206e+00	1.161206e+00	1.161206e+00	1.161206e+00	1.161206e+00	1.161206e+00	1.161206e+00	1.161206e+00	1.161206e+00	1.161206e+00	1.161206e+00	1.161206e+00	1.161206e+00	1.161206e+00	1.161206e+00	1.161206e+00	1.161206e+00	1.161206e+00	1.161206e+00	1.161206e+00	1.161206e+00	1.161206e+00	1.161206e+00	1.161206e+00	1.161206e+00	1.161206e+00	1.161206e+00	1.161206e+00	1.161206e+00	1.161206e+00	1.161206e+00	1.161206e+00	1.161206e+00	1.161206e+00	1.161206e+00	1.161206e+00	1.161206e+00	1.161206e+00	1.161206e+00	1.161206e+00	1.161206e+00	1.161206e+00	1.161206e+00	1.161206e+00	1.161206e+00	1.161206e+00	1.161206e+00	1.660237e+00	1.456770e+00	1.232950e+00	1.130504e+00	1.125470e+00	1.147836e+00	1.162495e+00	1.165727e+00	1.163791e+00	1.161640e+00	1.160768e+00	1.160788e+00	1.161044e+00	1.161213e+00	1.161257e+00	1.161240e+00	1.161216e+00	1.161203e+00	1.161201e+00	1.161203e+00	1.161205e+00	1.161206e+00	1.161206e+00	1.161206e+00	1.161206e+00	1.161206e+00	1.161205e+00	1.161206e+00	1.161206e+00	1.161206e+00	1.161206e+00	1.161206e+00	1.161206e+00	1.161206e+00	1.161206e+00	1.161206e+00	1.161206e+00	1.161206e+00	1.161206e+00	1.161206e+00	1.161206e+00	1.161206e+00	1.161206e+00	1.161206e+00	1.161206e+00	1.161206e+00	1.161206e+00	1.161206e+00	1.161206e+00	1.161206e+00	1.161206e+00	1.161206e+00	1.161206e+00	1.161206e+00	1.161206e+00	1.161206e+00	1.161206e+00	1.161206e+00	1.161206e+00	1.161206e+00	1.161206e+00	1.161206e+00	1.161206e+00	1.161206e+00	1.161206e+00	1.161206e+00	1.161206e+00	1.161206e+00	1.161206e+00	1.161206e+00	1.161206e+00	1.161206e+00	1.161206e+00	1.161206e+00	1.161206e+00	1.755318e+00	1.676921e+00	1.475128e+00	1.246650e+00	1.134343e+00	1.124037e+00	1.145832e+00	1.161604e+00	1.165733e+00	1.164072e+00	1.161834e+00	1.160817e+00	1.160762e+00	1.161010e+00	1.161195e+00	1.161254e+00	1.161244e+00	1.161219e+00	1.161205e+00	1.161201e+00	1.161203e+00	1.161205e+00	1.161206e+00	1.161206e+00	1.161206e+00	1.161206e+00	1.161206e+00	1.161206e+00	1.161206e+00	1.161206e+00	1.161206e+00	1.161206e+00	1.161206e+00	1.161206e+00	1.161206e+00	1.161206e+00	1.161206e+00	1.161206e+00	1.161206e+00	1.161206e+00	1.161206e+00	1.161206e+00	1.161206e+00	1.161206e+00	1.161206e+00	1.161206e+00	1.161206e+00	1.161206e+00	1.161206e+00	1.161206e+00	1.161206e+00	1.161206e+00	1.161206e+00	1.161206e+00	1.161206e+00	1.161206e+00	1.161206e+00	1.161206e+00	1.161206e+00	1.161206e+00	1.161206e+00	1.161206e+00	1.161206e+00	1.161206e+00	1.161206e+00	1.161206e+00	1.161206e+00	1.161206e+00	1.161206e+00	1.161206e+00	1.161206e+00	1.161206e+00	1.161206e+00	1.161206e+00	1.161206e+00	1.736005e+00	1.748525e+00	1.688557e+00	1.495597e+00	1.263102e+00	1.139420e+00	1.122724e+00	1.143548e+00	1.160494e+00	1.165667e+00	1.164371e+00	1.162065e+00	1.160888e+00	1.160741e+00	1.160972e+00	1.161173e+00	1.161250e+00	1.161247e+00	1.161223e+00	1.161207e+00	1.161202e+00	1.161202e+00	1.161204e+00	1.161205e+00	1.161206e+00	1.161206e+00	1.161206e+00	1.161206e+00	1.161206e+00	1.161206e+00	1.161206e+00	1.161206e+00	1.161206e+00	1.161206e+00	1.161206e+00	1.161206e+00	1.161206e+00	1.161206e+00	1.161206e+00	1.161206e+00	1.161206e+00	1.161206e+00	1.161206e+00	1.161206e+00	1.161206e+00	1.161206e+00	1.161206e+00	1.161206e+00	1.161206e+00	1.161206e+00	1.161206e+00	1.161206e+00	1.161206e+00	1.161206e+00	1.161206e+00	1.161206e+00	1.161206e+00	1.161206e+00	1.161206e+00	1.161206e+00	1.161206e+00	1.161206e+00	1.161206e+00	1.161206e+00	1.161206e+00	1.161206e+00	1.161206e+00	1.161206e+00	1.161206e+00	1.161206e+00	1.161206e+00	1.161206e+00	1.161206e+00	1.161206e+00	1.161206e+00	1.701213e+00	1.727659e+00	1.748914e+00	1.699479e+00	1.518030e+00	1.282460e+00	1.146096e+00	1.121672e+00	1.140981e+00	1.159121e+00	1.165499e+00	1.164679e+00	1.162335e+00	1.160986e+00	1.160727e+00	1.160931e+00	1.161147e+00	1.161242e+00	1.161249e+00	1.161227e+00	1.161209e+00	1.161202e+00	1.161202e+00	1.161204e+00	1.161205e+00	1.161206e+00	1.161206e+00	1.161206e+00	1.161206e+00	1.161206e+00	1.161206e+00	1.161206e+00	1.161206e+00	1.161206e+00	1.161206e+00	1.161206e+00	1.161206e+00	1.161206e+00	1.161206e+00	1.161206e+00	1.161206e+00	1.161206e+00	1.161206e+00	1.161206e+00	1.161206e+00	1.161206e+00	1.161206e+00	1.161206e+00	1.161206e+00	1.161206e+00	1.161206e+00	1.161206e+00	1.161206e+00	1.161206e+00	1.161206e+00	1.161206e+00	1.161206e+00	1.161206e+00	1.161206e+00	1.161206e+00	1.161206e+00	1.161206e+00	1.161206e+00	1.161206e+00	1.161206e+00	1.161206e+00	1.161206e+00	1.161206e+00	1.161206e+00	1.161206e+00	1.161206e+00	1.161206e+00	1.161206e+00	1.161206e+00	1.161206e+00	1.687296e+00	1.698571e+00	1.724396e+00	1.748615e+00	1.710035e+00	1.542140e+00	1.304952e+00	1.154785e+00	1.121072e+00	1.138151e+00	1.157441e+00	1.165191e+00	1.164983e+00	1.162649e+00	1.161119e+00	1.160726e+00	1.160888e+00	1.161115e+00	1.161231e+00	1.161250e+00	1.161231e+00	1.161212e+00	1.161203e+00	1.161202e+00	1.161204e+00	1.161205e+00	1.161206e+00	1.161206e+00	1.161206e+00	1.161206e+00	1.161206e+00	1.161206e+00	1.161206e+00	1.161206e+00	1.161206e+00	1.161206e+00	1.161206e+00	1.161206e+00	1.161206e+00	1.161206e+00	1.161206e+00	1.161206e+00	1.161206e+00	1.161206e+00	1.161206e+00	1.161206e+00	1.161206e+00	1.161206e+00	1.161206e+00	1.161206e+00	1.161206e+00	1.161206e+00	1.161206e+00	1.161206e+00	1.161206e+00	1.161206e+00	1.161206e+00	1.161206e+00	1.161206e+00	1.161206e+00	1.161206e+00	1.161206e+00	1.161206e+00	1.161206e+00	1.161206e+00	1.161206e+00	1.161206e+00	1.161206e+00	1.161206e+00	1.161206e+00	1.161206e+00	1.161206e+00	1.161206e+00	1.161206e+00	1.161206e+00	1.688538e+00	1.688006e+00	1.696532e+00	1.721085e+00	1.747519e+00	1.719996e+00	1.567481e+00	1.330777e+00	1.165959e+00	1.121179e+00	1.135101e+00	1.155406e+00	1.164695e+00	1.165262e+00	1.163007e+00	1.161292e+00	1.160742e+00	1.160846e+00	1.161078e+00	1.161216e+00	1.161249e+00	1.161235e+00	1.161215e+00	1.161205e+00	1.161202e+00	1.161203e+00	1.161205e+00	1.161206e+00	1.161206e+00	1.161206e+00	1.161206e+00	1.161206e+00	1.161206e+00	1.161206e+00	1.161206e+00	1.161206e+00	1.161206e+00	1.161206e+00	1.161206e+00	1.161206e+00	1.161206e+00	1.161206e+00	1.161206e+00	1.161206e+00	1.161206e+00	1.161206e+00	1.161206e+00	1.161206e+00	1.161206e+00	1.161206e+00	1.161206e+00	1.161206e+00	1.161206e+00	1.161206e+00	1.161206e+00	1.161206e+00	1.161206e+00	1.161206e+00	1.161206e+00	1.161206e+00	1.161206e+00	1.161206e+00	1.161206e+00	1.161206e+00	1.161206e+00	1.161206e+00	1.161206e+00	1.161206e+00	1.161206e+00	1.161206e+00	1.161206e+00	1.161206e+00	1.161206e+00	1.161206e+00	1.161206e+00	1.692805e+00	1.689674e+00	1.687743e+00	1.694732e+00	1.717509e+00	1.745659e+00	1.728956e+00	1.593545e+00	1.360027e+00	1.180157e+00	1.122324e+00	1.131912e+00	1.152970e+00	1.163955e+00	1.165489e+00	1.163406e+00	1.161513e+00	1.160782e+00	1.160808e+00	1.161036e+00	1.161195e+00	1.161246e+00	1.161239e+00	1.161219e+00	1.161207e+00	1.161203e+00	1.161203e+00	1.161205e+00	1.161205e+00	1.161206e+00	1.161206e+00	1.161206e+00	1.161206e+00	1.161206e+00	1.161206e+00	1.161206e+00	1.161206e+00	1.161206e+00	1.161206e+00	1.161206e+00	1.161206e+00	1.161206e+00	1.161206e+00	1.161206e+00	1.161206e+00	1.161206e+00	1.161206e+00	1.161206e+00	1.161206e+00	1.161206e+00	1.161206e+00	1.161206e+00	1.161206e+00	1.161206e+00	1.161206e+00	1.161206e+00	1.161206e+00	1.161206e+00	1.161206e+00	1.161206e+00	1.161206e+00	1.161206e+00	1.161206e+00	1.161206e+00	1.161206e+00	1.161206e+00	1.161206e+00	1.161206e+00	1.161206e+00	1.161206e+00	1.161206e+00	1.161206e+00	1.161206e+00	1.161206e+00	1.161206e+00	1.694749e+00	1.693257e+00	1.690104e+00	1.687655e+00	1.693030e+00	1.713770e+00	1.742991e+00	1.736572e+00	1.619709e+00	1.392648e+00	1.197965e+00	1.124935e+00	1.128721e+00	1.150094e+00	1.162905e+00	1.165627e+00	1.163837e+00	1.161789e+00	1.160855e+00	1.160777e+00	1.160990e+00	1.161169e+00	1.161239e+00	1.161241e+00	1.161223e+00	1.161209e+00	1.161203e+00	1.161203e+00	1.161204e+00	1.161205e+00	1.161206e+00	1.161206e+00	1.161206e+00	1.161206e+00	1.161206e+00	1.161206e+00	1.161206e+00	1.161206e+00	1.161206e+00	1.161206e+00	1.161206e+00	1.161206e+00	1.161206e+00	1.161206e+00	1.161206e+00	1.161206e+00	1.161206e+00	1.161206e+00	1.161206e+00	1.161206e+00	1.161206e+00	1.161206e+00	1.161206e+00	1.161206e+00	1.161206e+00	1.161206e+00	1.161206e+00	1.161206e+00	1.161206e+00	1.161206e+00	1.161206e+00	1.161206e+00	1.161206e+00	1.161206e+00	1.161206e+00	1.161206e+00	1.161206e+00	1.161206e+00	1.161206e+00	1.161206e+00	1.161206e+00	1.161206e+00	1.161206e+00	1.161206e+00	1.161206e+00	1.694669e+00	1.694692e+00	1.693565e+00	1.690563e+00	1.687700e+00	1.691480e+00	1.709949e+00	1.739528e+00	1.742538e+00	1.645258e+00	1.428390e+00	1.219988e+00	1.129557e+00	1.125731e+00	1.146757e+00	1.161474e+00	1.165625e+00	1.164285e+00	1.162126e+00	1.160970e+00	1.160760e+00	1.160941e+00	1.161136e+00	1.161228e+00	1.161242e+00	1.161227e+00	1.161211e+00	1.161204e+00	1.161203e+00	1.161204e+00	1.161205e+00	1.161206e+00	1.161206e+00	1.