# vtk DataFile Version 3.0
vtk output
ASCII
DATASET UNSTRUCTURED_GRID
POINTS 75 float
1.500000e+00	1.763270e-01	0.0	1.479592e+00	1.727285e-01	0.0	1.459184e+00	1.691300e-01	0.0	1.438776e+00	1.655315e-01	0.0	1.418367e+00	1.619329e-01	0.0	1.397959e+00	1.583344e-01	0.0	1.377551e+00	1.547359e-01	0.0	1.357143e+00	1.511374e-01	0.0	1.336735e+00	1.475389e-01	0.0	1.316327e+00	1.439404e-01	0.0	1.295918e+00	1.403419e-01	0.0	1.275510e+00	1.367434e-01	0.0	1.255102e+00	1.331449e-01	0.0	1.234694e+00	1.295464e-01	0.0	1.214286e+00	1.259478e-01	0.0	1.193878e+00	1.223493e-01	0.0	1.173469e+00	1.187508e-01	0.0	1.153061e+00	1.151523e-01	0.0	1.132653e+00	1.115538e-01	0.0	1.112245e+00	1.079553e-01	0.0	1.091837e+00	1.043568e-01	0.0	1.071429e+00	1.007583e-01	0.0	1.051020e+00	9.715976e-02	0.0	1.030612e+00	9.356126e-02	0.0	1.010204e+00	8.996275e-02	0.0	9.897959e-01	8.636424e-02	0.0	9.693878e-01	8.276573e-02	0.0	9.489796e-01	7.916722e-02	0.0	9.285714e-01	7.556871e-02	0.0	9.081633e-01	7.197020e-02	0.0	8.877551e-01	6.837169e-02	0.0	8.673469e-01	6.477318e-02	0.0	8.469388e-01	6.117467e-02	0.0	8.265306e-01	5.757616e-02	0.0	8.061224e-01	5.397765e-02	0.0	7.857143e-01	5.037914e-02	0.0	7.653061e-01	4.678063e-02	0.0	7.448980e-01	4.318212e-02	0.0	7.244898e-01	3.958361e-02	0.0	7.040816e-01	3.598510e-02	0.0	6.836735e-01	3.238659e-02	0.0	6.632653e-01	2.878808e-02	0.0	6.428571e-01	2.518957e-02	0.0	6.224490e-01	2.159106e-02	0.0	6.020408e-01	1.799255e-02	0.0	5.816327e-01	1.439404e-02	0.0	5.612245e-01	1.079553e-02	0.0	5.408163e-01	7.197020e-03	0.0	5.204082e-01	3.598510e-03	0.0	5.000000e-01	0.000000e+00	0.0	4.800000e-01	0.000000e+00	0.0	4.600000e-01	0.000000e+00	0.0	4.400000e-01	0.000000e+00	0.0	4.200000e-01	0.000000e+00	0.0	4.000000e-01	0.000000e+00	0.0	3.800000e-01	0.000000e+00	0.0	3.600000e-01	0.000000e+00	0.0	3.400000e-01	0.000000e+00	0.0	3.200000e-01	0.000000e+00	0.0	3.000000e-01	0.000000e+00	0.0	2.800000e-01	0.000000e+00	0.0	2.600000e-01	0.000000e+00	0.0	2.400000e-01	0.000000e+00	0.0	2.200000e-01	0.000000e+00	0.0	2.000000e-01	0.000000e+00	0.0	1.800000e-01	0.000000e+00	0.0	1.600000e-01	0.000000e+00	0.0	1.400000e-01	0.000000e+00	0.0	1.200000e-01	0.000000e+00	0.0	1.000000e-01	0.000000e+00	0.0	8.000000e-02	0.000000e+00	0.0	6.000000e-02	0.000000e+00	0.0	4.000000e-02	0.000000e+00	0.0	2.000000e-02	0.000000e+00	0.0	0.000000e+00	0.000000e+00	0.0	
CELLS 74	222
2	74	73	2	73	72	2	72	71	2	71	70	2	70	69	2	69	68	2	68	67	2	67	66	2	66	65	2	65	64	2	64	63	2	63	62	2	62	61	2	61	60	2	60	59	2	59	58	2	58	57	2	57	56	2	56	55	2	55	54	2	54	53	2	53	52	2	52	51	2	51	50	2	50	49	2	49	48	2	48	47	2	47	46	2	46	45	2	45	44	2	44	43	2	43	42	2	42	41	2	41	40	2	40	39	2	39	38	2	38	37	2	37	36	2	36	35	2	35	34	2	34	33	2	33	32	2	32	31	2	31	30	2	30	29	2	29	28	2	28	27	2	27	26	2	26	25	2	25	24	2	24	23	2	23	22	2	22	21	2	21	20	2	20	19	2	19	18	2	18	17	2	17	16	2	16	15	2	15	14	2	14	13	2	13	12	2	12	11	2	11	10	2	10	9	2	9	8	2	8	7	2	7	6	2	6	5	2	5	4	2	4	3	2	3	2	2	2	1	2	1	0	
CELL_TYPES 74
3	3	3	3	3	3	3	3	3	3	3	3	3	3	3	3	3	3	3	3	3	3	3	3	3	3	3	3	3	3	3	3	3	3	3	3	3	3	3	3	3	3	3	3	3	3	3	3	3	3	3	3	3	3	3	3	3	3	3	3	3	3	3	3	3	3	3	3	3	3	3	3	3	3	
POINT_DATA 75

SCALARS Conservative_1 float 1
LOOKUP_TABLE default
1.697888e+00	1.697884e+00	1.697885e+00	1.697887e+00	1.697886e+00	1.697877e+00	1.697860e+00	1.697837e+00	1.697812e+00	1.697793e+00	1.697781e+00	1.697778e+00	1.697777e+00	1.697771e+00	1.697755e+00	1.697731e+00	1.697707e+00	1.697687e+00	1.697666e+00	1.697638e+00	1.697607e+00	1.697599e+00	1.697632e+00	1.697668e+00	1.697620e+00	1.697443e+00	1.697268e+00	1.697363e+00	1.697835e+00	1.698287e+00	1.697956e+00	1.696598e+00	1.695401e+00	1.696485e+00	1.700436e+00	1.703857e+00	1.700856e+00	1.690003e+00	1.680721e+00	1.688759e+00	1.718849e+00	1.746735e+00	1.727472e+00	1.650411e+00	1.579194e+00	1.606902e+00	1.771204e+00	1.924681e+00	1.724454e+00	1.287325e+00	1.139739e+00	1.164068e+00	1.160976e+00	1.161190e+00	1.161217e+00	1.161203e+00	1.161206e+00	1.161205e+00	1.161206e+00	1.161206e+00	1.161206e+00	1.161206e+00	1.161206e+00	1.161206e+00	1.161206e+00	1.161206e+00	1.161206e+00	1.161206e+00	1.161206e+00	1.161206e+00	1.161206e+00	1.161206e+00	1.161206e+00	1.161206e+00	1.161206e+00	
SCALARS Conservative_2 float 1
LOOKUP_TABLE default
1.035981e+03	1.035969e+03	1.035959e+03	1.035949e+03	1.035938e+03	1.035924e+03	1.035907e+03	1.035887e+03	1.035867e+03	1.035849e+03	1.035834e+03	1.035822e+03	1.035812e+03	1.035799e+03	1.035783e+03	1.035763e+03	1.035743e+03	1.035726e+03	1.035708e+03	1.035687e+03	1.035665e+03	1.035650e+03	1.035650e+03	1.035656e+03	1.035634e+03	1.035562e+03	1.035479e+03	1.035486e+03	1.035642e+03	1.035825e+03	1.035745e+03	1.035254e+03	1.034725e+03	1.034970e+03	1.036367e+03	1.037840e+03	1.037140e+03	1.033253e+03	1.029195e+03	1.031089e+03	1.041723e+03	1.053496e+03	1.049878e+03	1.022033e+03	9.901002e+02	9.935337e+02	1.047562e+03	1.106638e+03	1.059629e+03	8.716664e+02	7.959448e+02	8.091025e+02	8.073989e+02	8.075321e+02	8.075409e+02	8.075349e+02	8.075362e+02	8.075361e+02	8.075361e+02	8.075361e+02	8.075361e+02	8.075361e+02	8.075361e+02	8.075361e+02	8.075361e+02	8.075361e+02	8.075361e+02	8.075361e+02	8.075361e+02	8.075361e+02	8.075361e+02	8.075361e+02	8.075361e+02	8.075361e+02	8.075361e+02	
SCALARS Conservative_3 float 1
LOOKUP_TABLE default
1.826707e+02	1.826690e+02	1.826679e+02	1.826668e+02	1.826650e+02	1.826622e+02	1.826585e+02	1.826541e+02	1.826501e+02	1.826470e+02	1.826452e+02	1.826442e+02	1.826428e+02	1.826401e+02	1.826365e+02	1.826331e+02	1.826305e+02	1.826271e+02	1.826207e+02	1.826133e+02	1.826118e+02	1.826216e+02	1.826339e+02	1.826254e+02	1.825821e+02	1.825346e+02	1.825529e+02	1.826705e+02	1.827905e+02	1.827132e+02	1.823607e+02	1.820277e+02	1.822721e+02	1.832770e+02	1.841931e+02	1.834699e+02	1.806458e+02	1.781373e+02	1.800819e+02	1.876742e+02	1.947407e+02	1.895030e+02	1.683583e+02	1.505260e+02	1.639132e+02	2.174448e+02	2.802830e+02	2.549510e+02	1.022981e+02	8.118436e-01	-3.083072e+00	9.670313e-01	-1.954942e-01	2.802133e-02	-1.945506e-03	-3.994248e-04	2.051268e-04	-5.360872e-05	1.035859e-05	-1.507767e-06	1.312811e-07	9.127817e-09	-7.321982e-09	2.008228e-09	-3.867372e-10	5.397978e-11	-3.949691e-12	-8.025864e-13	5.557733e-14	-3.389727e-13	4.550948e-14	-2.583059e-14	3.089255e-14	7.280120e-15	1.651210e-15	
SCALARS Conservative_4 float 1
LOOKUP_TABLE default
7.527293e+05	7.527235e+05	7.527198e+05	7.527166e+05	7.527120e+05	7.527043e+05	7.526933e+05	7.526798e+05	7.526659e+05	7.526538e+05	7.526452e+05	7.526397e+05	7.526353e+05	7.526288e+05	7.526184e+05	7.526048e+05	7.525912e+05	7.525791e+05	7.525669e+05	7.525515e+05	7.525351e+05	7.525282e+05	7.525375e+05	7.525483e+05	7.525248e+05	7.524499e+05	7.523754e+05	7.524098e+05	7.525962e+05	7.527743e+05	7.526371e+05	7.520864e+05	7.516007e+05	7.520342e+05	7.536213e+05	7.549944e+05	7.537827e+05	7.494087e+05	7.456647e+05	7.489097e+05	7.610241e+05	7.722086e+05	7.645065e+05	7.334503e+05	7.045443e+05	7.162261e+05	7.830603e+05	8.436090e+05	7.637727e+05	5.839609e+05	5.216149e+05	5.320238e+05	5.306898e+05	5.307867e+05	5.307965e+05	5.307910e+05	5.307922e+05	5.307920e+05	5.307920e+05	5.307920e+05	5.307920e+05	5.307920e+05	5.307920e+05	5.307920e+05	5.307920e+05	5.307920e+05	5.307920e+05	5.307920e+05	5.307920e+05	5.307920e+05	5.307920e+05	5.307920e+05	5.307920e+05	5.307920e+05	5.307920e+05	
SCALARS Pressure float 1
LOOKUP_TABLE default
1.707384e+05	1.707389e+05	1.707401e+05	1.707415e+05	1.707423e+05	1.707421e+05	1.707407e+05	1.707384e+05	1.707360e+05	1.707342e+05	1.707336e+05	1.707341e+05	1.707350e+05	1.707351e+05	1.707339e+05	1.707315e+05	1.707291e+05	1.707273e+05	1.707254e+05	1.707223e+05	1.707190e+05	1.707189e+05	1.707245e+05	1.707306e+05	1.707247e+05	1.707008e+05	1.706771e+05	1.706914e+05	1.707589e+05	1.708235e+05	1.707778e+05	1.705874e+05	1.704198e+05	1.705734e+05	1.711309e+05	1.716145e+05	1.711913e+05	1.696637e+05	1.683608e+05	1.694842e+05	1.737280e+05	1.776942e+05	1.749075e+05	1.640535e+05	1.542633e+05	1.577469e+05	1.804393e+05	2.034321e+05	1.740729e+05	1.155406e+05	9.747357e+04	1.003337e+05	9.997500e+04	9.999749e+04	1.000015e+05	9.999964e+04	1.000001e+05	9.999999e+04	1.000000e+05	1.000000e+05	1.000000e+05	1.000000e+05	1.000000e+05	1.000000e+05	1.000000e+05	1.000000e+05	1.000000e+05	1.000000e+05	1.000000e+05	1.000000e+05	1.000000e+05	1.000000e+05	1.000000e+05	1.000000e+05	1.000000e+05	
SCALARS Temperature float 1
LOOKUP_TABLE default
3.503101e+02	3.503119e+02	3.503141e+02	3.503164e+02	3.503184e+02	3.503198e+02	3.503204e+02	3.503206e+02	3.503207e+02	3.503211e+02	3.503222e+02	3.503240e+02	3.503259e+02	3.503275e+02	3.503282e+02	3.503283e+02	3.503283e+02	3.503287e+02	3.503290e+02	3.503287e+02	3.503281e+02	3.503295e+02	3.503342e+02	3.503392e+02	3.503372e+02	3.503246e+02	3.503121e+02	3.503219e+02	3.503629e+02	3.504022e+02	3.503768e+02	3.502664e+02	3.501693e+02	3.502607e+02	3.505892e+02	3.508740e+02	3.506264e+02	3.497290e+02	3.489600e+02	3.496165e+02	3.520970e+02	3.543859e+02	3.527182e+02	3.462771e+02	3.402964e+02	3.419808e+02	3.548893e+02	3.682063e+02	3.516494e+02	3.126633e+02	2.979283e+02	3.002608e+02	2.999844e+02	2.999965e+02	3.000016e+02	2.999996e+02	3.000001e+02	3.000000e+02	3.000000e+02	3.000000e+02	3.000000e+02	3.000000e+02	3.000000e+02	3.000000e+02	3.000000e+02	3.000000e+02	3.000000e+02	3.000000e+02	3.000000e+02	3.000000e+02	3.000000e+02	3.000000e+02	3.000000e+02	3.000000e+02	3.000000e+02	
SCALARS Pressure_Coefficient float 1
LOOKUP_TABLE default
2.526373e-01	2.526390e-01	2.526433e-01	2.526481e-01	2.526511e-01	2.526503e-01	2.526453e-01	2.526372e-01	2.526286e-01	2.526222e-01	2.526200e-01	2.526218e-01	2.526249e-01	2.526255e-01	2.526210e-01	2.526126e-01	2.526040e-01	2.525974e-01	2.525906e-01	2.525797e-01	2.525677e-01	2.525675e-01	2.525874e-01	2.526092e-01	2.525882e-01	2.525029e-01	2.524181e-01	2.524692e-01	2.527102e-01	2.529410e-01	2.527778e-01	2.520980e-01	2.514994e-01	2.520477e-01	2.540389e-01	2.557660e-01	2.542548e-01	2.487990e-01	2.441458e-01	2.481577e-01	2.633142e-01	2.774792e-01	2.675269e-01	2.287625e-01	1.937976e-01	2.062389e-01	2.872833e-01	3.694004e-01	2.645459e-01	5.550232e-02	-9.022957e-03	1.191802e-03	-8.929026e-05	-8.957603e-06	5.334512e-06	-1.296200e-06	2.141937e-07	-2.123233e-08	-9.784778e-10	1.097564e-09	-3.235482e-10	6.619053e-11	-1.002305e-11	9.114696e-13	5.644064e-14	-5.051593e-14	1.377235e-14	-3.066296e-15	-5.197113e-17	-5.716824e-16	-4.157690e-16	-3.637979e-16	-3.637979e-16	-3.637979e-16	-1.559134e-16	
SCALARS Mach float 1
LOOKUP_TABLE default
1.651263e+00	1.651243e+00	1.651221e+00	1.651197e+00	1.651176e+00	1.651159e+00	1.651147e+00	1.651138e+00	1.651130e+00	1.651119e+00	1.651104e+00	1.651085e+00	1.651064e+00	1.651046e+00	1.651033e+00	1.651025e+00	1.651017e+00	1.651007e+00	1.650998e+00	1.650993e+00	1.650989e+00	1.650972e+00	1.650933e+00	1.650892e+00	1.650899e+00	1.650976e+00	1.651052e+00	1.650980e+00	1.650698e+00	1.650428e+00	1.650590e+00	1.651321e+00	1.651964e+00	1.651346e+00	1.649143e+00	1.647233e+00	1.648878e+00	1.654873e+00	1.660021e+00	1.655622e+00	1.639055e+00	1.623804e+00	1.634851e+00	1.677924e+00	1.718452e+00	1.707274e+00	1.621174e+00	1.533848e+00	1.642150e+00	1.910183e+00	2.018255e+00	2.000908e+00	2.002935e+00	2.002855e+00	2.002814e+00	2.002830e+00	2.002826e+00	2.002827e+00	2.002827e+00	2.002827e+00	2.002827e+00	2.002827e+00	2.002827e+00	2.002827e+00	2.002827e+00	2.002827e+00	2.002827e+00	2.002827e+00	2.002827e+00	2.002827e+00	2.002827e+00	2.002827e+00	2.002827e+00	2.002827e+00	2.002827e+00	