# vtk DataFile Version 3.0
vtk output
ASCII
DATASET UNSTRUCTURED_GRID
POINTS 75 float
1.500000e+00	1.763270e-01	0.0	1.479592e+00	1.727285e-01	0.0	1.459184e+00	1.691300e-01	0.0	1.438776e+00	1.655315e-01	0.0	1.418367e+00	1.619329e-01	0.0	1.397959e+00	1.583344e-01	0.0	1.377551e+00	1.547359e-01	0.0	1.357143e+00	1.511374e-01	0.0	1.336735e+00	1.475389e-01	0.0	1.316327e+00	1.439404e-01	0.0	1.295918e+00	1.403419e-01	0.0	1.275510e+00	1.367434e-01	0.0	1.255102e+00	1.331449e-01	0.0	1.234694e+00	1.295464e-01	0.0	1.214286e+00	1.259478e-01	0.0	1.193878e+00	1.223493e-01	0.0	1.173469e+00	1.187508e-01	0.0	1.153061e+00	1.151523e-01	0.0	1.132653e+00	1.115538e-01	0.0	1.112245e+00	1.079553e-01	0.0	1.091837e+00	1.043568e-01	0.0	1.071429e+00	1.007583e-01	0.0	1.051020e+00	9.715976e-02	0.0	1.030612e+00	9.356126e-02	0.0	1.010204e+00	8.996275e-02	0.0	9.897959e-01	8.636424e-02	0.0	9.693878e-01	8.276573e-02	0.0	9.489796e-01	7.916722e-02	0.0	9.285714e-01	7.556871e-02	0.0	9.081633e-01	7.197020e-02	0.0	8.877551e-01	6.837169e-02	0.0	8.673469e-01	6.477318e-02	0.0	8.469388e-01	6.117467e-02	0.0	8.265306e-01	5.757616e-02	0.0	8.061224e-01	5.397765e-02	0.0	7.857143e-01	5.037914e-02	0.0	7.653061e-01	4.678063e-02	0.0	7.448980e-01	4.318212e-02	0.0	7.244898e-01	3.958361e-02	0.0	7.040816e-01	3.598510e-02	0.0	6.836735e-01	3.238659e-02	0.0	6.632653e-01	2.878808e-02	0.0	6.428571e-01	2.518957e-02	0.0	6.224490e-01	2.159106e-02	0.0	6.020408e-01	1.799255e-02	0.0	5.816327e-01	1.439404e-02	0.0	5.612245e-01	1.079553e-02	0.0	5.408163e-01	7.197020e-03	0.0	5.204082e-01	3.598510e-03	0.0	5.000000e-01	0.000000e+00	0.0	4.800000e-01	0.000000e+00	0.0	4.600000e-01	0.000000e+00	0.0	4.400000e-01	0.000000e+00	0.0	4.200000e-01	0.000000e+00	0.0	4.000000e-01	0.000000e+00	0.0	3.800000e-01	0.000000e+00	0.0	3.600000e-01	0.000000e+00	0.0	3.400000e-01	0.000000e+00	0.0	3.200000e-01	0.000000e+00	0.0	3.000000e-01	0.000000e+00	0.0	2.800000e-01	0.000000e+00	0.0	2.600000e-01	0.000000e+00	0.0	2.400000e-01	0.000000e+00	0.0	2.200000e-01	0.000000e+00	0.0	2.000000e-01	0.000000e+00	0.0	1.800000e-01	0.000000e+00	0.0	1.600000e-01	0.000000e+00	0.0	1.400000e-01	0.000000e+00	0.0	1.200000e-01	0.000000e+00	0.0	1.000000e-01	0.000000e+00	0.0	8.000000e-02	0.000000e+00	0.0	6.000000e-02	0.000000e+00	0.0	4.000000e-02	0.000000e+00	0.0	2.000000e-02	0.000000e+00	0.0	0.000000e+00	0.000000e+00	0.0	
CELLS 74	222
2	74	73	2	73	72	2	72	71	2	71	70	2	70	69	2	69	68	2	68	67	2	67	66	2	66	65	2	65	64	2	64	63	2	63	62	2	62	61	2	61	60	2	60	59	2	59	58	2	58	57	2	57	56	2	56	55	2	55	54	2	54	53	2	53	52	2	52	51	2	51	50	2	50	49	2	49	48	2	48	47	2	47	46	2	46	45	2	45	44	2	44	43	2	43	42	2	42	41	2	41	40	2	40	39	2	39	38	2	38	37	2	37	36	2	36	35	2	35	34	2	34	33	2	33	32	2	32	31	2	31	30	2	30	29	2	29	28	2	28	27	2	27	26	2	26	25	2	25	24	2	24	23	2	23	22	2	22	21	2	21	20	2	20	19	2	19	18	2	18	17	2	17	16	2	16	15	2	15	14	2	14	13	2	13	12	2	12	11	2	11	10	2	10	9	2	9	8	2	8	7	2	7	6	2	6	5	2	5	4	2	4	3	2	3	2	2	2	1	2	1	0	
CELL_TYPES 74
3	3	3	3	3	3	3	3	3	3	3	3	3	3	3	3	3	3	3	3	3	3	3	3	3	3	3	3	3	3	3	3	3	3	3	3	3	3	3	3	3	3	3	3	3	3	3	3	3	3	3	3	3	3	3	3	3	3	3	3	3	3	3	3	3	3	3	3	3	3	3	3	3	3	
POINT_DATA 75

SCALARS Conservative_1 float 1
LOOKUP_TABLE default
1.710204e+00	1.710317e+00	1.710609e+00	1.710956e+00	1.711196e+00	1.711181e+00	1.710854e+00	1.710328e+00	1.709872e+00	1.709753e+00	1.710033e+00	1.710523e+00	1.710934e+00	1.711031e+00	1.710684e+00	1.709945e+00	1.709221e+00	1.709188e+00	1.710091e+00	1.711134e+00	1.711125e+00	1.710094e+00	1.709544e+00	1.710233e+00	1.710521e+00	1.708791e+00	1.707194e+00	1.709558e+00	1.714104e+00	1.712945e+00	1.704357e+00	1.700719e+00	1.712661e+00	1.726631e+00	1.715933e+00	1.687050e+00	1.685446e+00	1.729771e+00	1.760250e+00	1.707946e+00	1.635733e+00	1.666655e+00	1.798172e+00	1.824986e+00	1.644973e+00	1.521028e+00	1.666597e+00	1.937932e+00	1.773465e+00	1.298372e+00	1.136697e+00	1.164184e+00	1.161122e+00	1.161133e+00	1.161229e+00	1.161202e+00	1.161206e+00	1.161206e+00	1.161205e+00	1.161206e+00	1.161206e+00	1.161206e+00	1.161206e+00	1.161206e+00	1.161206e+00	1.161206e+00	1.161206e+00	1.161206e+00	1.161206e+00	1.161206e+00	1.161206e+00	1.161206e+00	1.161206e+00	1.161206e+00	1.161206e+00	
SCALARS Conservative_2 float 1
LOOKUP_TABLE default
1.049040e+03	1.049049e+03	1.049126e+03	1.049225e+03	1.049284e+03	1.049254e+03	1.049108e+03	1.048883e+03	1.048674e+03	1.048585e+03	1.048649e+03	1.048805e+03	1.048943e+03	1.048967e+03	1.048822e+03	1.048516e+03	1.048191e+03	1.048103e+03	1.048385e+03	1.048780e+03	1.048827e+03	1.048462e+03	1.048207e+03	1.048420e+03	1.048562e+03	1.047934e+03	1.047169e+03	1.047779e+03	1.049461e+03	1.049392e+03	1.046374e+03	1.044518e+03	1.048336e+03	1.053904e+03	1.051244e+03	1.040529e+03	1.038094e+03	1.053089e+03	1.066448e+03	1.050771e+03	1.021599e+03	1.028114e+03	1.073551e+03	1.093049e+03	1.032416e+03	9.752190e+02	1.018679e+03	1.109626e+03	1.081221e+03	8.766023e+02	7.943187e+02	8.090538e+02	8.074987e+02	8.074966e+02	8.075485e+02	8.075339e+02	8.075362e+02	8.075361e+02	8.075361e+02	8.075361e+02	8.075361e+02	8.075361e+02	8.075361e+02	8.075361e+02	8.075361e+02	8.075361e+02	8.075361e+02	8.075361e+02	8.075361e+02	8.075361e+02	8.075361e+02	8.075361e+02	8.075361e+02	8.075361e+02	8.075361e+02	
SCALARS Conservative_3 float 1
LOOKUP_TABLE default
1.849734e+02	1.849837e+02	1.850193e+02	1.850636e+02	1.850793e+02	1.850309e+02	1.849214e+02	1.848086e+02	1.847662e+02	1.848163e+02	1.849045e+02	1.849514e+02	1.849190e+02	1.848151e+02	1.846652e+02	1.845344e+02	1.845527e+02	1.847940e+02	1.850745e+02	1.850245e+02	1.845492e+02	1.840953e+02	1.841116e+02	1.842955e+02	1.839663e+02	1.834112e+02	1.839476e+02	1.857127e+02	1.863247e+02	1.838966e+02	1.812670e+02	1.833529e+02	1.887725e+02	1.885880e+02	1.793910e+02	1.738984e+02	1.843974e+02	1.998264e+02	1.919835e+02	1.634758e+02	1.600494e+02	1.991497e+02	2.320823e+02	1.826170e+02	1.131494e+02	1.352065e+02	2.471943e+02	2.923968e+02	1.191436e+02	1.331629e+00	-4.102089e+00	1.370372e+00	-2.559593e-01	2.600073e-02	2.254986e-03	-1.792908e-03	4.798629e-04	-7.951316e-05	5.714108e-06	1.411362e-06	-6.735451e-07	1.538669e-07	-2.081122e-08	2.377935e-10	7.816903e-10	-2.557331e-10	4.859949e-11	-4.885343e-12	-8.705507e-13	1.449977e-13	-4.844664e-14	-1.234068e-13	-1.468872e-13	-1.450063e-13	-3.278232e-14	
SCALARS Conservative_4 float 1
LOOKUP_TABLE default
7.583698e+05	7.584093e+05	7.585209e+05	7.586551e+05	7.587458e+05	7.587339e+05	7.585963e+05	7.583783e+05	7.581888e+05	7.581350e+05	7.582420e+05	7.584339e+05	7.585937e+05	7.586271e+05	7.584818e+05	7.581780e+05	7.578810e+05	7.578620e+05	7.582205e+05	7.586351e+05	7.586256e+05	7.582045e+05	7.579775e+05	7.582498e+05	7.583603e+05	7.576577e+05	7.570091e+05	7.579566e+05	7.597827e+05	7.593100e+05	7.558440e+05	7.543726e+05	7.591825e+05	7.647999e+05	7.604921e+05	7.488439e+05	7.482009e+05	7.660647e+05	7.782966e+05	7.572963e+05	7.280758e+05	7.406898e+05	7.935600e+05	8.042570e+05	7.319530e+05	6.812237e+05	7.408533e+05	8.490148e+05	7.834445e+05	5.883375e+05	5.203534e+05	5.320438e+05	5.307581e+05	5.307610e+05	5.308019e+05	5.307903e+05	5.307922e+05	5.307921e+05	5.307920e+05	5.307920e+05	5.307920e+05	5.307920e+05	5.307920e+05	5.307920e+05	5.307920e+05	5.307920e+05	5.307920e+05	5.307920e+05	5.307920e+05	5.307920e+05	5.307920e+05	5.307920e+05	5.307920e+05	5.307920e+05	5.307920e+05	
SCALARS Pressure float 1
LOOKUP_TABLE default
1.706503e+05	1.706721e+05	1.707189e+05	1.707736e+05	1.708131e+05	1.708169e+05	1.707769e+05	1.707089e+05	1.706508e+05	1.706398e+05	1.706848e+05	1.707593e+05	1.708227e+05	1.708420e+05	1.707991e+05	1.707010e+05	1.706051e+05	1.706060e+05	1.707382e+05	1.708901e+05	1.708945e+05	1.707554e+05	1.706837e+05	1.707859e+05	1.708318e+05	1.705945e+05	1.703759e+05	1.707122e+05	1.713557e+05	1.711987e+05	1.699996e+05	1.694947e+05	1.711722e+05	1.731436e+05	1.716399e+05	1.675983e+05	1.673698e+05	1.735844e+05	1.779093e+05	1.704970e+05	1.604901e+05	1.646736e+05	1.832463e+05	1.871148e+05	1.616319e+05	1.450319e+05	1.644783e+05	2.037120e+05	1.799404e+05	1.169662e+05	9.712514e+04	1.003662e+05	9.998877e+04	9.999151e+04	1.000027e+05	9.999954e+04	1.000000e+05	1.000000e+05	1.000000e+05	1.000000e+05	1.000000e+05	1.000000e+05	1.000000e+05	1.000000e+05	1.000000e+05	1.000000e+05	1.000000e+05	1.000000e+05	1.000000e+05	1.000000e+05	1.000000e+05	1.000000e+05	1.000000e+05	1.000000e+05	1.000000e+05	
SCALARS Temperature float 1
LOOKUP_TABLE default
3.476077e+02	3.476292e+02	3.476653e+02	3.477059e+02	3.477376e+02	3.477484e+02	3.477334e+02	3.477020e+02	3.476762e+02	3.476782e+02	3.477129e+02	3.477650e+02	3.478105e+02	3.478301e+02	3.478131e+02	3.477637e+02	3.477156e+02	3.477241e+02	3.478097e+02	3.479071e+02	3.479178e+02	3.478443e+02	3.478102e+02	3.478781e+02	3.479130e+02	3.477816e+02	3.476607e+02	3.478653e+02	3.482506e+02	3.481670e+02	3.474704e+02	3.471795e+02	3.481707e+02	3.493312e+02	3.484562e+02	3.460764e+02	3.459335e+02	3.495847e+02	3.520908e+02	3.477547e+02	3.417953e+02	3.441980e+02	3.550048e+02	3.571734e+02	3.422935e+02	3.321671e+02	3.438019e+02	3.661917e+02	3.534567e+02	3.138280e+02	2.976578e+02	3.003284e+02	2.999878e+02	2.999933e+02	3.000022e+02	2.999996e+02	3.000000e+02	3.000000e+02	3.000000e+02	3.000000e+02	3.000000e+02	3.000000e+02	3.000000e+02	3.000000e+02	3.000000e+02	3.000000e+02	3.000000e+02	3.000000e+02	3.000000e+02	3.000000e+02	3.000000e+02	3.000000e+02	3.000000e+02	3.000000e+02	3.000000e+02	
SCALARS Pressure_Coefficient float 1
LOOKUP_TABLE default
2.523225e-01	2.524003e-01	2.525676e-01	2.527628e-01	2.529039e-01	2.529174e-01	2.527746e-01	2.525318e-01	2.523242e-01	2.522851e-01	2.524457e-01	2.527119e-01	2.529381e-01	2.530072e-01	2.528539e-01	2.525035e-01	2.521611e-01	2.521641e-01	2.526364e-01	2.531791e-01	2.531945e-01	2.526978e-01	2.524419e-01	2.528068e-01	2.529707e-01	2.521233e-01	2.513426e-01	2.525435e-01	2.548419e-01	2.542812e-01	2.499986e-01	2.481954e-01	2.541866e-01	2.612273e-01	2.558566e-01	2.414226e-01	2.406063e-01	2.628014e-01	2.782475e-01	2.517750e-01	2.160361e-01	2.309770e-01	2.973081e-01	3.111244e-01	2.201139e-01	1.608283e-01	2.302796e-01	3.704001e-01	2.855014e-01	6.059355e-02	-1.026735e-02	1.307977e-03	-4.012303e-05	-3.033306e-05	9.747281e-06	-1.658378e-06	1.090464e-07	3.363805e-08	-1.477377e-08	3.201711e-09	-3.917273e-10	-8.683388e-12	1.863513e-11	-5.427760e-12	9.222276e-13	-6.314492e-14	-1.824187e-14	8.939034e-15	-2.442643e-15	-5.716824e-16	-6.236535e-16	-1.559134e-16	1.039423e-16	0.000000e+00	5.197113e-17	
SCALARS Mach float 1
LOOKUP_TABLE default
1.666476e+00	1.666332e+00	1.666089e+00	1.665817e+00	1.665604e+00	1.665532e+00	1.665632e+00	1.665843e+00	1.666016e+00	1.666003e+00	1.665770e+00	1.665420e+00	1.665115e+00	1.664983e+00	1.665097e+00	1.665429e+00	1.665752e+00	1.665695e+00	1.665120e+00	1.664467e+00	1.664395e+00	1.664888e+00	1.665117e+00	1.664661e+00	1.664427e+00	1.665309e+00	1.666120e+00	1.664747e+00	1.662163e+00	1.662723e+00	1.667398e+00	1.669352e+00	1.662698e+00	1.654924e+00	1.660784e+00	1.676769e+00	1.677731e+00	1.653227e+00	1.636495e+00	1.665490e+00	1.705695e+00	1.689433e+00	1.617125e+00	1.602766e+00	1.702317e+00	1.771626e+00	1.692109e+00	1.543521e+00	1.627404e+00	1.901120e+00	2.020451e+00	2.000366e+00	2.002918e+00	2.002877e+00	2.002810e+00	2.002829e+00	2.002827e+00	2.002827e+00	2.002827e+00	2.002827e+00	2.002827e+00	2.002827e+00	2.002827e+00	2.002827e+00	2.002827e+00	2.002827e+00	2.002827e+00	2.002827e+00	2.002827e+00	2.002827e+00	2.002827e+00	2.002827e+00	2.002827e+00	2.002827e+00	2.002827e+00	