# vtk DataFile Version 3.0
vtk output
ASCII
DATASET UNSTRUCTURED_GRID
POINTS 3750 float
1.500000e+00	1.000000e+00	0.0	1.479592e+00	1.000000e+00	0.0	1.459184e+00	1.000000e+00	0.0	1.438776e+00	1.000000e+00	0.0	1.418367e+00	1.000000e+00	0.0	1.397959e+00	1.000000e+00	0.0	1.377551e+00	1.000000e+00	0.0	1.357143e+00	1.000000e+00	0.0	1.336735e+00	1.000000e+00	0.0	1.316327e+00	1.000000e+00	0.0	1.295918e+00	1.000000e+00	0.0	1.275510e+00	1.000000e+00	0.0	1.255102e+00	1.000000e+00	0.0	1.234694e+00	1.000000e+00	0.0	1.214286e+00	1.000000e+00	0.0	1.193878e+00	1.000000e+00	0.0	1.173469e+00	1.000000e+00	0.0	1.153061e+00	1.000000e+00	0.0	1.132653e+00	1.000000e+00	0.0	1.112245e+00	1.000000e+00	0.0	1.091837e+00	1.000000e+00	0.0	1.071429e+00	1.000000e+00	0.0	1.051020e+00	1.000000e+00	0.0	1.030612e+00	1.000000e+00	0.0	1.010204e+00	1.000000e+00	0.0	9.897959e-01	1.000000e+00	0.0	9.693878e-01	1.000000e+00	0.0	9.489796e-01	1.000000e+00	0.0	9.285714e-01	1.000000e+00	0.0	9.081633e-01	1.000000e+00	0.0	8.877551e-01	1.000000e+00	0.0	8.673469e-01	1.000000e+00	0.0	8.469388e-01	1.000000e+00	0.0	8.265306e-01	1.000000e+00	0.0	8.061224e-01	1.000000e+00	0.0	7.857143e-01	1.000000e+00	0.0	7.653061e-01	1.000000e+00	0.0	7.448980e-01	1.000000e+00	0.0	7.244898e-01	1.000000e+00	0.0	7.040816e-01	1.000000e+00	0.0	6.836735e-01	1.000000e+00	0.0	6.632653e-01	1.000000e+00	0.0	6.428571e-01	1.000000e+00	0.0	6.224490e-01	1.000000e+00	0.0	6.020408e-01	1.000000e+00	0.0	5.816327e-01	1.000000e+00	0.0	5.612245e-01	1.000000e+00	0.0	5.408163e-01	1.000000e+00	0.0	5.204082e-01	1.000000e+00	0.0	5.000000e-01	1.000000e+00	0.0	4.800000e-01	1.000000e+00	0.0	4.600000e-01	1.000000e+00	0.0	4.400000e-01	1.000000e+00	0.0	4.200000e-01	1.000000e+00	0.0	4.000000e-01	1.000000e+00	0.0	3.800000e-01	1.000000e+00	0.0	3.600000e-01	1.000000e+00	0.0	3.400000e-01	1.000000e+00	0.0	3.200000e-01	1.000000e+00	0.0	3.000000e-01	1.000000e+00	0.0	2.800000e-01	1.000000e+00	0.0	2.600000e-01	1.000000e+00	0.0	2.400000e-01	1.000000e+00	0.0	2.200000e-01	1.000000e+00	0.0	2.000000e-01	1.000000e+00	0.0	1.800000e-01	1.000000e+00	0.0	1.600000e-01	1.000000e+00	0.0	1.400000e-01	1.000000e+00	0.0	1.200000e-01	1.000000e+00	0.0	1.000000e-01	1.000000e+00	0.0	8.000000e-02	1.000000e+00	0.0	6.000000e-02	1.000000e+00	0.0	4.000000e-02	1.000000e+00	0.0	2.000000e-02	1.000000e+00	0.0	0.000000e+00	1.000000e+00	0.0	1.500000e+00	9.831903e-01	0.0	1.479592e+00	9.831169e-01	0.0	1.459184e+00	9.830435e-01	0.0	1.438776e+00	9.829700e-01	0.0	1.418367e+00	9.828966e-01	0.0	1.397959e+00	9.828232e-01	0.0	1.377551e+00	9.827497e-01	0.0	1.357143e+00	9.826763e-01	0.0	1.336735e+00	9.826028e-01	0.0	1.316327e+00	9.825294e-01	0.0	1.295918e+00	9.824560e-01	0.0	1.275510e+00	9.823825e-01	0.0	1.255102e+00	9.823091e-01	0.0	1.234694e+00	9.822356e-01	0.0	1.214286e+00	9.821622e-01	0.0	1.193878e+00	9.820888e-01	0.0	1.173469e+00	9.820153e-01	0.0	1.153061e+00	9.819419e-01	0.0	1.132653e+00	9.818684e-01	0.0	1.112245e+00	9.817950e-01	0.0	1.091837e+00	9.817216e-01	0.0	1.071429e+00	9.816481e-01	0.0	1.051020e+00	9.815747e-01	0.0	1.030612e+00	9.815013e-01	0.0	1.010204e+00	9.814278e-01	0.0	9.897959e-01	9.813544e-01	0.0	9.693878e-01	9.812809e-01	0.0	9.489796e-01	9.812075e-01	0.0	9.285714e-01	9.811341e-01	0.0	9.081633e-01	9.810606e-01	0.0	8.877551e-01	9.809872e-01	0.0	8.673469e-01	9.809137e-01	0.0	8.469388e-01	9.808403e-01	0.0	8.265306e-01	9.807669e-01	0.0	8.061224e-01	9.806934e-01	0.0	7.857143e-01	9.806200e-01	0.0	7.653061e-01	9.805465e-01	0.0	7.448980e-01	9.804731e-01	0.0	7.244898e-01	9.803997e-01	0.0	7.040816e-01	9.803262e-01	0.0	6.836735e-01	9.802528e-01	0.0	6.632653e-01	9.801793e-01	0.0	6.428571e-01	9.801059e-01	0.0	6.224490e-01	9.800325e-01	0.0	6.020408e-01	9.799590e-01	0.0	5.816327e-01	9.798856e-01	0.0	5.612245e-01	9.798122e-01	0.0	5.408163e-01	9.797387e-01	0.0	5.204082e-01	9.796653e-01	0.0	5.000000e-01	9.795918e-01	0.0	4.800000e-01	9.795918e-01	0.0	4.600000e-01	9.795918e-01	0.0	4.400000e-01	9.795918e-01	0.0	4.200000e-01	9.795918e-01	0.0	4.000000e-01	9.795918e-01	0.0	3.800000e-01	9.795918e-01	0.0	3.600000e-01	9.795918e-01	0.0	3.400000e-01	9.795918e-01	0.0	3.200000e-01	9.795918e-01	0.0	3.000000e-01	9.795918e-01	0.0	2.800000e-01	9.795918e-01	0.0	2.600000e-01	9.795918e-01	0.0	2.400000e-01	9.795918e-01	0.0	2.200000e-01	9.795918e-01	0.0	2.000000e-01	9.795918e-01	0.0	1.800000e-01	9.795918e-01	0.0	1.600000e-01	9.795918e-01	0.0	1.400000e-01	9.795918e-01	0.0	1.200000e-01	9.795918e-01	0.0	1.000000e-01	9.795918e-01	0.0	8.000000e-02	9.795918e-01	0.0	6.000000e-02	9.795918e-01	0.0	4.000000e-02	9.795918e-01	0.0	2.000000e-02	9.795918e-01	0.0	0.000000e+00	9.795918e-01	0.0	1.500000e+00	9.663807e-01	0.0	1.479592e+00	9.662338e-01	0.0	1.459184e+00	9.660869e-01	0.0	1.438776e+00	9.659401e-01	0.0	1.418367e+00	9.657932e-01	0.0	1.397959e+00	9.656463e-01	0.0	1.377551e+00	9.654994e-01	0.0	1.357143e+00	9.653525e-01	0.0	1.336735e+00	9.652057e-01	0.0	1.316327e+00	9.650588e-01	0.0	1.295918e+00	9.649119e-01	0.0	1.275510e+00	9.647650e-01	0.0	1.255102e+00	9.646182e-01	0.0	1.234694e+00	9.644713e-01	0.0	1.214286e+00	9.643244e-01	0.0	1.193878e+00	9.641775e-01	0.0	1.173469e+00	9.640306e-01	0.0	1.153061e+00	9.638838e-01	0.0	1.132653e+00	9.637369e-01	0.0	1.112245e+00	9.635900e-01	0.0	1.091837e+00	9.634431e-01	0.0	1.071429e+00	9.632963e-01	0.0	1.051020e+00	9.631494e-01	0.0	1.030612e+00	9.630025e-01	0.0	1.010204e+00	9.628556e-01	0.0	9.897959e-01	9.627087e-01	0.0	9.693878e-01	9.625619e-01	0.0	9.489796e-01	9.624150e-01	0.0	9.285714e-01	9.622681e-01	0.0	9.081633e-01	9.621212e-01	0.0	8.877551e-01	9.619744e-01	0.0	8.673469e-01	9.618275e-01	0.0	8.469388e-01	9.616806e-01	0.0	8.265306e-01	9.615337e-01	0.0	8.061224e-01	9.613868e-01	0.0	7.857143e-01	9.612400e-01	0.0	7.653061e-01	9.610931e-01	0.0	7.448980e-01	9.609462e-01	0.0	7.244898e-01	9.607993e-01	0.0	7.040816e-01	9.606525e-01	0.0	6.836735e-01	9.605056e-01	0.0	6.632653e-01	9.603587e-01	0.0	6.428571e-01	9.602118e-01	0.0	6.224490e-01	9.600649e-01	0.0	6.020408e-01	9.599181e-01	0.0	5.816327e-01	9.597712e-01	0.0	5.612245e-01	9.596243e-01	0.0	5.408163e-01	9.594774e-01	0.0	5.204082e-01	9.593306e-01	0.0	5.000000e-01	9.591837e-01	0.0	4.800000e-01	9.591837e-01	0.0	4.600000e-01	9.591837e-01	0.0	4.400000e-01	9.591837e-01	0.0	4.200000e-01	9.591837e-01	0.0	4.000000e-01	9.591837e-01	0.0	3.800000e-01	9.591837e-01	0.0	3.600000e-01	9.591837e-01	0.0	3.400000e-01	9.591837e-01	0.0	3.200000e-01	9.591837e-01	0.0	3.000000e-01	9.591837e-01	0.0	2.800000e-01	9.591837e-01	0.0	2.600000e-01	9.591837e-01	0.0	2.400000e-01	9.591837e-01	0.0	2.200000e-01	9.591837e-01	0.0	2.000000e-01	9.591837e-01	0.0	1.800000e-01	9.591837e-01	0.0	1.600000e-01	9.591837e-01	0.0	1.400000e-01	9.591837e-01	0.0	1.200000e-01	9.591837e-01	0.0	1.000000e-01	9.591837e-01	0.0	8.000000e-02	9.591837e-01	0.0	6.000000e-02	9.591837e-01	0.0	4.000000e-02	9.591837e-01	0.0	2.000000e-02	9.591837e-01	0.0	0.000000e+00	9.591837e-01	0.0	1.500000e+00	9.495710e-01	0.0	1.479592e+00	9.493507e-01	0.0	1.459184e+00	9.491304e-01	0.0	1.438776e+00	9.489101e-01	0.0	1.418367e+00	9.486898e-01	0.0	1.397959e+00	9.484695e-01	0.0	1.377551e+00	9.482491e-01	0.0	1.357143e+00	9.480288e-01	0.0	1.336735e+00	9.478085e-01	0.0	1.316327e+00	9.475882e-01	0.0	1.295918e+00	9.473679e-01	0.0	1.275510e+00	9.471476e-01	0.0	1.255102e+00	9.469272e-01	0.0	1.234694e+00	9.467069e-01	0.0	1.214286e+00	9.464866e-01	0.0	1.193878e+00	9.462663e-01	0.0	1.173469e+00	9.460460e-01	0.0	1.153061e+00	9.458257e-01	0.0	1.132653e+00	9.456053e-01	0.0	1.112245e+00	9.453850e-01	0.0	1.091837e+00	9.451647e-01	0.0	1.071429e+00	9.449444e-01	0.0	1.051020e+00	9.447241e-01	0.0	1.030612e+00	9.445038e-01	0.0	1.010204e+00	9.442834e-01	0.0	9.897959e-01	9.440631e-01	0.0	9.693878e-01	9.438428e-01	0.0	9.489796e-01	9.436225e-01	0.0	9.285714e-01	9.434022e-01	0.0	9.081633e-01	9.431818e-01	0.0	8.877551e-01	9.429615e-01	0.0	8.673469e-01	9.427412e-01	0.0	8.469388e-01	9.425209e-01	0.0	8.265306e-01	9.423006e-01	0.0	8.061224e-01	9.420803e-01	0.0	7.857143e-01	9.418599e-01	0.0	7.653061e-01	9.416396e-01	0.0	7.448980e-01	9.414193e-01	0.0	7.244898e-01	9.411990e-01	0.0	7.040816e-01	9.409787e-01	0.0	6.836735e-01	9.407584e-01	0.0	6.632653e-01	9.405380e-01	0.0	6.428571e-01	9.403177e-01	0.0	6.224490e-01	9.400974e-01	0.0	6.020408e-01	9.398771e-01	0.0	5.816327e-01	9.396568e-01	0.0	5.612245e-01	9.394365e-01	0.0	5.408163e-01	9.392161e-01	0.0	5.204082e-01	9.389958e-01	0.0	5.000000e-01	9.387755e-01	0.0	4.800000e-01	9.387755e-01	0.0	4.600000e-01	9.387755e-01	0.0	4.400000e-01	9.387755e-01	0.0	4.200000e-01	9.387755e-01	0.0	4.000000e-01	9.387755e-01	0.0	3.800000e-01	9.387755e-01	0.0	3.600000e-01	9.387755e-01	0.0	3.400000e-01	9.387755e-01	0.0	3.200000e-01	9.387755e-01	0.0	3.000000e-01	9.387755e-01	0.0	2.800000e-01	9.387755e-01	0.0	2.600000e-01	9.387755e-01	0.0	2.400000e-01	9.387755e-01	0.0	2.200000e-01	9.387755e-01	0.0	2.000000e-01	9.387755e-01	0.0	1.800000e-01	9.387755e-01	0.0	1.600000e-01	9.387755e-01	0.0	1.400000e-01	9.387755e-01	0.0	1.200000e-01	9.387755e-01	0.0	1.000000e-01	9.387755e-01	0.0	8.000000e-02	9.387755e-01	0.0	6.000000e-02	9.387755e-01	0.0	4.000000e-02	9.387755e-01	0.0	2.000000e-02	9.387755e-01	0.0	0.000000e+00	9.387755e-01	0.0	1.500000e+00	9.327614e-01	0.0	1.479592e+00	9.324676e-01	0.0	1.459184e+00	9.321739e-01	0.0	1.438776e+00	9.318801e-01	0.0	1.418367e+00	9.315864e-01	0.0	1.397959e+00	9.312926e-01	0.0	1.377551e+00	9.309989e-01	0.0	1.357143e+00	9.307051e-01	0.0	1.336735e+00	9.304113e-01	0.0	1.316327e+00	9.301176e-01	0.0	1.295918e+00	9.298238e-01	0.0	1.275510e+00	9.295301e-01	0.0	1.255102e+00	9.292363e-01	0.0	1.234694e+00	9.289426e-01	0.0	1.214286e+00	9.286488e-01	0.0	1.193878e+00	9.283550e-01	0.0	1.173469e+00	9.280613e-01	0.0	1.153061e+00	9.277675e-01	0.0	1.132653e+00	9.274738e-01	0.0	1.112245e+00	9.271800e-01	0.0	1.091837e+00	9.268863e-01	0.0	1.071429e+00	9.265925e-01	0.0	1.051020e+00	9.262988e-01	0.0	1.030612e+00	9.260050e-01	0.0	1.010204e+00	9.257112e-01	0.0	9.897959e-01	9.254175e-01	0.0	9.693878e-01	9.251237e-01	0.0	9.489796e-01	9.248300e-01	0.0	9.285714e-01	9.245362e-01	0.0	9.081633e-01	9.242425e-01	0.0	8.877551e-01
[...]
POINT_DATA 3750

SCALARS Conservative_1 float 1
LOOKUP_TABLE default
1.178403e+00	1.175389e+00	1.170401e+00	1.167112e+00	1.164965e+00	1.163577e+00	1.162687e+00	1.162122e+00	1.161766e+00	1.161545e+00	1.161409e+00	1.161326e+00	1.161276e+00	1.161246e+00	1.161228e+00	1.161218e+00	1.161213e+00	1.161209e+00	1.161208e+00	1.161207e+00	1.161206e+00	1.161206e+00	1.161206e+00	1.161206e+00	1.161206e+00	1.161206e+00	1.161206e+00	1.161206e+00	1.161206e+00	1.161206e+00	1.161206e+00	1.161206e+00	1.161206e+00	1.161206e+00	1.161206e+00	1.161206e+00	1.161206e+00	1.161206e+00	1.161206e+00	1.161206e+00	1.161206e+00	1.161206e+00	1.161206e+00	1.161206e+00	1.161206e+00	1.161206e+00	1.161206e+00	1.161206e+00	1.161206e+00	1.161206e+00	1.161206e+00	1.161206e+00	1.161206e+00	1.161206e+00	1.161206e+00	1.161206e+00	1.161206e+00	1.161206e+00	1.161206e+00	1.161206e+00	1.161206e+00	1.161206e+00	1.161206e+00	1.161206e+00	1.161206e+00	1.161206e+00	1.161206e+00	1.161206e+00	1.161206e+00	1.161206e+00	1.161206e+00	1.161206e+00	1.161206e+00	1.161206e+00	1.161206e+00	1.177282e+00	1.174475e+00	1.169824e+00	1.166751e+00	1.164741e+00	1.163439e+00	1.162603e+00	1.162071e+00	1.161736e+00	1.161527e+00	1.161399e+00	1.161320e+00	1.161272e+00	1.161244e+00	1.161228e+00	1.161218e+00	1.161212e+00	1.161209e+00	1.161207e+00	1.161207e+00	1.161206e+00	1.161206e+00	1.161206e+00	1.161206e+00	1.161206e+00	1.161206e+00	1.161206e+00	1.161206e+00	1.161206e+00	1.161206e+00	1.161206e+00	1.161206e+00	1.161206e+00	1.161206e+00	1.161206e+00	1.161206e+00	1.161206e+00	1.161206e+00	1.161206e+00	1.161206e+00	1.161206e+00	1.161206e+00	1.161206e+00	1.161206e+00	1.161206e+00	1.161206e+00	1.161206e+00	1.161206e+00	1.161206e+00	1.161206e+00	1.161206e+00	1.161206e+00	1.161206e+00	1.161206e+00	1.161206e+00	1.161206e+00	1.161206e+00	1.161206e+00	1.161206e+00	1.161206e+00	1.161206e+00	1.161206e+00	1.161206e+00	1.161206e+00	1.161206e+00	1.161206e+00	1.161206e+00	1.161206e+00	1.161206e+00	1.161206e+00	1.161206e+00	1.161206e+00	1.161206e+00	1.161206e+00	1.161206e+00	1.181221e+00	1.177790e+00	1.172081e+00	1.168266e+00	1.165744e+00	1.164096e+00	1.163029e+00	1.162344e+00	1.161910e+00	1.161636e+00	1.161466e+00	1.161361e+00	1.161298e+00	1.161259e+00	1.161236e+00	1.161223e+00	1.161215e+00	1.161211e+00	1.161208e+00	1.161207e+00	1.161206e+00	1.161206e+00	1.161206e+00	1.161206e+00	1.161206e+00	1.161206e+00	1.161206e+00	1.161206e+00	1.161206e+00	1.161206e+00	1.161206e+00	1.161206e+00	1.161206e+00	1.161206e+00	1.161206e+00	1.161206e+00	1.161206e+00	1.161206e+00	1.161206e+00	1.161206e+00	1.161206e+00	1.161206e+00	1.161206e+00	1.161206e+00	1.161206e+00	1.161206e+00	1.161206e+00	1.161206e+00	1.161206e+00	1.161206e+00	1.161206e+00	1.161206e+00	1.161206e+00	1.161206e+00	1.161206e+00	1.161206e+00	1.161206e+00	1.161206e+00	1.161206e+00	1.161206e+00	1.161206e+00	1.161206e+00	1.161206e+00	1.161206e+00	1.161206e+00	1.161206e+00	1.161206e+00	1.161206e+00	1.161206e+00	1.161206e+00	1.161206e+00	1.161206e+00	1.161206e+00	1.161206e+00	1.161206e+00	1.188205e+00	1.183693e+00	1.176138e+00	1.171008e+00	1.167573e+00	1.165300e+00	1.163813e+00	1.162850e+00	1.162232e+00	1.161840e+00	1.161593e+00	1.161440e+00	1.161345e+00	1.161288e+00	1.161254e+00	1.161233e+00	1.161221e+00	1.161214e+00	1.161210e+00	1.161208e+00	1.161207e+00	1.161206e+00	1.161206e+00	1.161206e+00	1.161206e+00	1.161206e+00	1.161206e+00	1.161206e+00	1.161206e+00	1.161206e+00	1.161206e+00	1.161206e+00	1.161206e+00	1.161206e+00	1.161206e+00	1.161206e+00	1.161206e+00	1.161206e+00	1.161206e+00	1.161206e+00	1.161206e+00	1.161206e+00	1.161206e+00	1.161206e+00	1.161206e+00	1.161206e+00	1.161206e+00	1.161206e+00	1.161206e+00	1.161206e+00	1.161206e+00	1.161206e+00	1.161206e+00	1.161206e+00	1.161206e+00	1.161206e+00	1.161206e+00	1.161206e+00	1.161206e+00	1.161206e+00	1.161206e+00	1.161206e+00	1.161206e+00	1.161206e+00	1.161206e+00	1.161206e+00	1.161206e+00	1.161206e+00	1.161206e+00	1.161206e+00	1.161206e+00	1.161206e+00	1.161206e+00	1.161206e+00	1.161206e+00	1.199019e+00	1.192892e+00	1.182553e+00	1.175396e+00	1.170527e+00	1.167262e+00	1.165100e+00	1.163685e+00	1.162768e+00	1.162180e+00	1.161807e+00	1.161573e+00	1.161427e+00	1.161337e+00	1.161283e+00	1.161250e+00	1.161231e+00	1.161220e+00	1.161214e+00	1.161210e+00	1.161208e+00	1.161207e+00	1.161206e+00	1.161206e+00	1.161206e+00	1.161206e+00	1.161206e+00	1.161206e+00	1.161206e+00	1.161206e+00	1.161206e+00	1.161206e+00	1.161206e+00	1.161206e+00	1.161206e+00	1.161206e+00	1.161206e+00	1.161206e+00	1.161206e+00	1.161206e+00	1.161206e+00	1.161206e+00	1.161206e+00	1.161206e+00	1.161206e+00	1.161206e+00	1.161206e+00	1.161206e+00	1.161206e+00	1.161206e+00	1.161206e+00	1.161206e+00	1.161206e+00	1.161206e+00	1.161206e+00	1.161206e+00	1.161206e+00	1.161206e+00	1.161206e+00	1.161206e+00	1.161206e+00	1.161206e+00	1.161206e+00	1.161206e+00	1.161206e+00	1.161206e+00	1.161206e+00	1.161206e+00	1.161206e+00	1.161206e+00	1.161206e+00	1.161206e+00	1.161206e+00	1.161206e+00	1.161206e+00	1.214690e+00	1.206356e+00	1.192135e+00	1.182059e+00	1.175072e+00	1.170314e+00	1.167122e+00	1.165008e+00	1.163624e+00	1.162728e+00	1.162154e+00	1.161790e+00	1.161561e+00	1.161419e+00	1.161333e+00	1.161280e+00	1.161248e+00	1.161230e+00	1.161219e+00	1.161213e+00	1.161210e+00	1.161208e+00	1.161207e+00	1.161206e+00	1.161206e+00	1.161206e+00	1.161206e+00	1.161206e+00	1.161206e+00	1.161206e+00	1.161206e+00	1.161206e+00	1.161206e+00	1.161206e+00	1.161206e+00	1.161206e+00	1.161206e+00	1.161206e+00	1.161206e+00	1.161206e+00	1.161206e+00	1.161206e+00	1.161206e+00	1.161206e+00	1.161206e+00	1.161206e+00	1.161206e+00	1.161206e+00	1.161206e+00	1.161206e+00	1.161206e+00	1.161206e+00	1.161206e+00	1.161206e+00	1.161206e+00	1.161206e+00	1.161206e+00	1.161206e+00	1.161206e+00	1.161206e+00	1.161206e+00	1.161206e+00	1.161206e+00	1.161206e+00	1.161206e+00	1.161206e+00	1.161206e+00	1.161206e+00	1.161206e+00	1.161206e+00	1.161206e+00	1.161206e+00	1.161206e+00	1.161206e+00	1.161206e+00	1.236336e+00	1.225201e+00	1.205928e+00	1.191863e+00	1.181878e+00	1.174949e+00	1.170229e+00	1.167062e+00	1.164965e+00	1.163594e+00	1.162706e+00	1.162138e+00	1.161779e+00	1.161554e+00	1.161414e+00	1.161329e+00	1.161278e+00	1.161247e+00	1.161229e+00	1.161219e+00	1.161213e+00	1.161209e+00	1.161208e+00	1.161207e+00	1.161206e+00	1.161206e+00	1.161206e+00	1.161206e+00	1.161206e+00	1.161206e+00	1.161206e+00	1.161206e+00	1.161206e+00	1.161206e+00	1.161206e+00	1.161206e+00	1.161206e+00	1.161206e+00	1.161206e+00	1.161206e+00	1.161206e+00	1.161206e+00	1.161206e+00	1.161206e+00	1.161206e+00	1.161206e+00	1.161206e+00	1.161206e+00	1.161206e+00	1.161206e+00	1.161206e+00	1.161206e+00	1.161206e+00	1.161206e+00	1.161206e+00	1.161206e+00	1.161206e+00	1.161206e+00	1.161206e+00	1.161206e+00	1.161206e+00	1.161206e+00	1.161206e+00	1.161206e+00	1.161206e+00	1.161206e+00	1.161206e+00	1.161206e+00	1.161206e+00	1.161206e+00	1.161206e+00	1.161206e+00	1.161206e+00	1.161206e+00	1.161206e+00	1.264894e+00	1.250503e+00	1.225147e+00	1.205908e+00	1.191854e+00	1.181868e+00	1.174936e+00	1.170213e+00	1.167045e+00	1.164950e+00	1.163580e+00	1.162695e+00	1.162129e+00	1.161771e+00	1.161548e+00	1.161410e+00	1.161326e+00	1.161276e+00	1.161246e+00	1.161228e+00	1.161218e+00	1.161212e+00	1.161209e+00	1.161207e+00	1.161206e+00	1.161206e+00	1.161206e+00	1.161206e+00	1.161206e+00	1.161206e+00	1.161206e+00	1.161206e+00	1.161206e+00	1.161206e+00	1.161206e+00	1.161206e+00	1.161206e+00	1.161206e+00	1.161206e+00	1.161206e+00	1.161206e+00	1.161206e+00	1.161206e+00	1.161206e+00	1.161206e+00	1.161206e+00	1.161206e+00	1.161206e+00	1.161206e+00	1.161206e+00	1.161206e+00	1.161206e+00	1.161206e+00	1.161206e+00	1.161206e+00	1.161206e+00	1.161206e+00	1.161206e+00	1.161206e+00	1.161206e+00	1.161206e+00	1.161206e+00	1.161206e+00	1.161206e+00	1.161206e+00	1.161206e+00	1.161206e+00	1.161206e+00	1.161206e+00	1.161206e+00	1.161206e+00	1.161206e+00	1.161206e+00	1.161206e+00	1.161206e+00	1.300704e+00	1.282926e+00	1.250897e+00	1.225448e+00	1.206139e+00	1.192013e+00	1.181969e+00	1.174994e+00	1.170243e+00	1.167058e+00	1.164952e+00	1.163577e+00	1.162690e+00	1.162123e+00	1.161766e+00	1.161544e+00	1.161407e+00	1.161324e+00	1.161274e+00	1.161244e+00	1.161227e+00	1.161217e+00	1.161212e+00	1.161209e+00	1.161207e+00	1.161206e+00	1.161206e+00	1.161206e+00	1.161206e+00	1.161206e+00	1.161206e+00	1.161206e+00	1.161206e+00	1.161206e+00	1.161206e+00	1.161206e+00	1.161206e+00	1.161206e+00	1.161206e+00	1.161206e+00	1.161206e+00	1.161206e+00	1.161206e+00	1.161206e+00	1.161206e+00	1.161206e+00	1.161206e+00	1.161206e+00	1.161206e+00	1.161206e+00	1.161206e+00	1.161206e+00	1.161206e+00	1.161206e+00	1.161206e+00	1.161206e+00	1.161206e+00	1.161206e+00	1.161206e+00	1.161206e+00	1.161206e+00	1.161206e+00	1.161206e+00	1.161206e+00	1.161206e+00	1.161206e+00	1.161206e+00	1.161206e+00	1.161206e+00	1.161206e+00	1.161206e+00	1.161206e+00	1.161206e+00	1.161206e+00	1.161206e+00	1.343128e+00	1.322337e+00	1.283885e+00	1.251664e+00	1.226024e+00	1.206564e+00	1.192302e+00	1.182156e+00	1.175109e+00	1.170309e+00	1.167093e+00	1.164968e+00	1.163583e+00	1.162690e+00	1.162121e+00	1.161763e+00	1.161541e+00	1.161404e+00	1.161321e+00	1.161272e+00	1.161243e+00	1.161226e+00	1.161217e+00	1.161212e+00	1.161209e+00	1.161207e+00	1.161206e+00	1.161206e+00	1.161206e+00	1.161206e+00	1.161206e+00	1.161206e+00	1.161206e+00	1.161206e+00	1.161206e+00	1.161206e+00	1.161206e+00	1.161206e+00	1.161206e+00	1.161206e+00	1.161206e+00	1.161206e+00	1.161206e+00	1.161206e+00	1.161206e+00	1.161206e+00	1.161206e+00	1.161206e+00	1.161206e+00	1.161206e+00	1.161206e+00	1.161206e+00	1.161206e+00	1.161206e+00	1.161206e+00	1.161206e+00	1.161206e+00	1.161206e+00	1.161206e+00	1.161206e+00	1.161206e+00	1.161206e+00	1.161206e+00	1.161206e+00	1.161206e+00	1.161206e+00	1.161206e+00	1.161206e+00	1.161206e+00	1.161206e+00	1.161206e+00	1.161206e+00	1.161206e+00	1.161206e+00	1.161206e+00	1.390353e+00	1.367492e+00	1.323950e+00	1.285250e+00	1.252749e+00	1.226848e+00	1.207157e+00	1.192710e+00	1.182424e+00	1.175276e+00	1.170409e+00	1.167150e+00	1.164998e+00	1.163596e+00	1.162695e+00	1.162121e+00	1.161762e+00	1.161538e+00	1.161402e+00	1.161320e+00	1.161271e+00	1.161242e+00	1.161226e+00	1.161216e+00	1.161211e+00	1.161208e+00	1.161207e+00	1.161206e+00	1.161206e+00	1.161206e+00	1.161206e+00	1.161206e+00	1.161206e+00	1.161206e+00	1.161206e+00	1.161206e+00	1.161206e+00	1.161206e+00	1.161206e+00	1.161206e+00	1.161206e+00	1.161206e+00	1.161206e+00	1.161206e+00	1.161206e+00	1.161206e+00	1.161206e+00	1.161206e+00	1.161206e+00	1.161206e+00	1.161206e+00	1.161206e+00	1.161206e+00	1.161206e+00	1.161206e+00	1.161206e+00	1.161206e+00	1.161206e+00	1.161206e+00	1.161206e+00	1.161206e+00	1.161206e+00	1.161206e+00	1.161206e+00	1.161206e+00	1.161206e+00	1.161206e+00	1.161206e+00	1.161206e+00	1.161206e+00	1.161206e+00	1.161206e+00	1.161206e+00	1.161206e+00	1.161206e+00	1.439621e+00	1.416068e+00	1.369781e+00	1.326011e+00	1.286987e+00	1.254121e+00	1.227900e+00	1.207918e+00	1.193235e+00	1.182770e+00	1.175496e+00	1.170543e+00	1.167228e+00	1.165041e+00	1.163618e+00	1.162704e+00	1.162125e+00	1.161762e+00	1.161537e+00	1.161400e+00	1.161318e+00	1.161269e+00	1.161241e+00	1.161225e+00	1.161216e+00	1.161211e+00	1.161208e+00	1.161207e+00	1.161206e+00	1.161206e+00	1.161206e+00	1.161206e+00	1.161206e+00	1.161206e+00	1.161206e+00	1.161206e+00	1.161206e+00	1.161206e+00	1.161206e+00	1.161206e+00	1.161206e+00	1.161206e+00	1.161206e+00	1.161206e+00	1.161206e+00	1.161206e+00	1.161206e+00	1.161206e+00	1.161206e+00	1.161206e+00	1.161206e+00	1.161206e+00	1.161206e+00	1.161206e+00	1.161206e+00	1.161206e+00	1.161206e+00	1.161206e+00	1.161206e+00	1.161206e+00	1.161206e+00	1.161206e+00	1.161206e+00	1.161206e+00	1.161206e+00	1.161206e+00	1.161206e+00	1.161206e+00	1.161206e+00	1.161206e+00	1.161206e+00	1.161206e+00	1.161206e+00	1.161206e+00	1.161206e+00	1.487801e+00	1.465065e+00	1.418950e+00	1.372549e+00	1.328503e+00	1.289092e+00	1.255794e+00	1.229184e+00	1.208849e+00	1.193879e+00	1.183198e+00	1.175770e+00	1.170712e+00	1.167328e+00	1.165097e+00	1.163648e+00	1.162719e+00	1.162131e+00	1.161763e+00	1.161537e+00	1.161399e+00	1.161317e+00	1.161268e+00	1.161240e+00	1.161224e+00	1.161216e+00	1.161211e+00	1.161208e+00	1.161207e+00	1.161206e+00	1.161206e+00	1.161206e+00	1.161206e+00	1.161206e+00	1.161206e+00	1.161206e+00	1.161206e+00	1.161206e+00	1.161206e+00	1.161206e+00	1.161206e+00	1.161206e+00	1.161206e+00	1.161206e+00	1.161206e+00	1.161206e+00	1.161206e+00	1.161206e+00	1.161206e+00	1.161206e+00	1.161206e+00	1.161206e+00	1.161206e+00	1.161206e+00	1.161206e+00	1.161206e+00	1.161206e+00	1.161206e+00	1.161206e+00	1.161206e+00	1.161206e+00	1.161206e+00	1.161206e+00	1.161206e+00	1.161206e+00	1.161206e+00	1.161206e+00	1.161206e+00	1.161206e+00	1.161206e+00	1.161206e+00	1.161206e+00	1.161206e+00	1.161206e+00	1.161206e+00	1.532104e+00	1.511477e+00	1.468353e+00	1.422313e+00	1.375786e+00	1.331429e+00	1.291577e+00	1.257782e+00	1.230713e+00	1.209959e+00	1.194650e+00	1.183713e+00	1.176102e+00	1.170918e+00	1.167451e+00	1.165168e+00	1.163687e+00	1.162738e+00	1.162139e+00	1.161766e+00	1.161537e+00	1.161398e+00	1.161316e+00	1.161267e+00	1.161239e+00	1.161224e+00	1.161215e+00	1.161210e+00	1.161208e+00	1.161207e+00	1.161206e+00	1.161206e+00	1.161206e+00	1.161206e+00	1.161206e+00	1.161206e+00	1.161206e+00	1.161206e+00	1.161206e+00	1.161206e+00	1.161206e+00	1.161206e+00	1.161206e+00	1.161206e+00	1.161206e+00	1.161206e+00	1.161206e+00	1.161206e+00	1.161206e+00	1.161206e+00	1.161206e+00	1.161206e+00	1.161206e+00	1.161206e+00	1.161206e+00	1.161206e+00	1.161206e+00	1.161206e+00	1.161206e+00	1.161206e+00	1.161206e+00	1.161206e+00	1.161206e+00	1.161206e+00	1.161206e+00	1.161206e+00	1.161206e+00	1.161206e+00	1.161206e+00	1.161206e+00	1.161206e+00	1.161206e+00	1.161206e+00	1.161206e+00	1.161206e+00	1.570609e+00	1.552928e+00	1.514923e+00	1.472090e+00	1.426148e+00	1.379496e+00	1.334801e+00	1.294459e+00	1.260111e+00	1.232497e+00	1.211260e+00	1.195557e+00	1.184321e+00	1.176494e+00	1.171163e+00	1.167599e+00	1.165254e+00	1.163734e+00	1.162763e+00	1.162151e+00	1.161771e+00	1.161538e+00	1.161398e+00	1.161315e+00	1.161266e+00	1.161239e+00	1.161223e+00	1.161215e+00	1.161210e+00	1.161208e+00	1.161207e+00	1.161206e+00	1.161206e+00	1.161206e+00	1.161206e+00	1.161206e+00	1.161206e+00	1.161206e+00	1.161206e+00	1.161206e+00	1.161206e+00	1.161206e+00	1.161206e+00	1.161206e+00	1.161206e+00	1.161206e+00	1.161206e+00	1.161206e+00	1.161206e+00	1.161206e+00	1.161206e+00	1.161206e+00	1.161206e+00	1.161206e+00	1.161206e+00	1.161206e+00	1.161206e+00	1.161206e+00	1.161206e+00	1.161206e+00	1.161206e+00	1.161206e+00	1.161206e+00	1.161206e+00	1.161206e+00	1.161206e+00	1.161206e+00	1.161206e+00	1.161206e+00	1.161206e+00	1.161206e+00	1.161206e+00	1.161206e+00	1.161206e+00	1.161206e+00	1.602454e+00	1.588040e+00	1.556294e+00	1.518768e+00	1.476274e+00	1.430462e+00	1.383688e+00	1.338629e+00	1.297737e+00	1.262785e+00	1.234554e+00	1.212764e+00	1.196609e+00	1.185028e+00	1.176953e+00	1.171451e+00	1.167773e+00	1.165355e+00	1.163791e+00	1.162793e+00	1.162166e+00	1.161777e+00	1.161540e+00	1.161398e+00	1.161314e+00	1.161265e+00	1.161238e+00	1.161223e+00	1.161214e+00	1.161210e+00	1.161208e+00	1.161207e+00	1.161206e+00	1.161206e+00	1.161206e+00	1.161206e+00	1.161206e+00	1.161206e+00	1.161206e+00	1.161206e+00	1.161206e+00	1.161206e+00	1.161206e+00	1.161206e+00	1.161206e+00	1.161206e+00	1.161206e+00	1.161206e+00	1.161206e+00	1.161206e+00	1.161206e+00	1.161206e+00	1.161206e+00	1.161206e+00	1.161206e+00	1.161206e+00	1.161206e+00	1.161206e+00	1.161206e+00	1.161206e+00	1.161206e+00	1.161206e+00	1.161206e+00	1.161206e+00	1.161206e+00	1.161206e+00	1.161206e+00	1.161206e+00	1.161206e+00	1.161206e+00	1.161206e+00	1.161206e+00	1.161206e+00	1.161206e+00	1.161206e+00	1.627682e+00	1.616431e+00	1.591130e+00	1.559984e+00	1.522997e+00	1.480899e+00	1.435256e+00	1.388374e+00	1.342933e+00	1.301450e+00	1.265827e+00	1.236903e+00	1.214488e+00	1.197819e+00	1.185844e+00	1.177484e+00	1.171784e+00	1.167975e+00	1.165474e+00	1.163858e+00	1.162829e+00	1.162183e+00	1.161785e+00	1.161543e+00	1.161398e+00	1.161313e+00	1.161265e+00	1.161237e+00	1.161222e+00	1.161214e+00	1.161210e+00	1.161208e+00	1.161206e+00	1.161206e+00	1.161206e+00	1.161206e+00	1.161206e+00	1.161206e+00	1.161206e+00	1.161206e+00	1.161206e+00	1.161206e+00	1.161206e+00	1.161206e+00	1.161206e+00	1.161206e+00	1.161206e+00	1.161206e+00	1.161206e+00	1.161206e+00	1.161206e+00	1.161206e+00	1.161206e+00	1.161206e+00	1.161206e+00	1.161206e+00	1.161206e+00	1.161206e+00	1.161206e+00	1.161206e+00	1.161206e+00	1.161206e+00	1.161206e+00	1.161206e+00	1.161206e+00	1.161206e+00	1.161206e+00	1.161206e+00	1.161206e+00	1.161206e+00	1.161206e+00	1.161206e+00	1.161206e+00	1.161206e+00	1.161206e+00	1.646951e+00	1.638487e+00	1.619123e+00	1.594465e+00	1.563980e+00	1.527600e+00	1.485959e+00	1.440533e+00	1.393565e+00	1.347735e+00	1.305620e+00	1.269259e+00	1.239567e+00	1.216452e+00	1.199201e+00	1.186778e+00	1.178093e+00	1.172168e+00	1.168209e+00	1.165611e+00	1.163935e+00	1.162870e+00	1.162204e+00	1.161794e+00	1.161546e+00	1.161399e+00	1.161313e+00	1.161264e+00	1.161236e+00	1.161222e+00	1.161214e+00	1.161209e+00	1.161207e+00	1.161206e+00	1.161206e+00	1.161206e+00	1.161206e+00	1.161206e+00	1.161206e+00	1.161206e+00	1.161206e+00	1.161206e+00	1.161206e+00	1.161206e+00	1.161206e+00	1.161206e+00	1.161206e+00	1.161206e+00	1.161206e+00	1.161206e+00	1.161206e+00	1.161206e+00	1.161206e+00	1.161206e+00	1.161206e+00	1.161206e+00	1.161206e+00	1.161206e+00	1.161206e+00	1.161206e+00	1.161206e+00	1.161206e+00	1.161206e+00	1.161206e+00	1.161206e+00	1.161206e+00	1.161206e+00	1.161206e+00	1.161206e+00	1.161206e+00	1.161206e+00	1.161206e+00	1.161206e+00	1.161206e+00	1.161206e+00	1.661216e+00	1.655047e+00	1.640730e+00	1.621988e+00	1.598028e+00	1.568267e+00	1.532561e+00	1.491447e+00	1.446295e+00	1.399276e+00	1.353057e+00	1.310274e+00	1.273111e+00	1.242572e+00	1.218676e+00	1.200773e+00	1.187843e+00	1.178788e+00	1.172607e+00	1.168477e+00	1.165769e+00	1.164024e+00	1.162918e+00	1.162228e+00	1.161806e+00	1.161551e+00	1.161400e+00	1.161313e+00	1.161263e+00	1.161236e+00	1.161221e+00	1.161213e+00	1.161209e+00	1.161207e+00	1.161206e+00	1.161206e+00	1.161206e+00	1.161206e+00	1.161206e+00	1.161206e+00	1.161206e+00	1.161206e+00	1.161206e+00	1.161206e+00	1.161206e+00	1.161206e+00	1.161206e+00	1.161206e+00	1.161206e+00	1.161206e+00	1.161206e+00	1.161206e+00	1.161206e+00	1.161206e+00	1.161206e+00	1.161206e+00	1.161206e+00	1.161206e+00	1.161206e+00	1.161206e+00	1.161206e+00	1.161206e+00	1.161206e+00	1.161206e+00	1.161206e+00	1.161206e+00	1.161206e+00	1.161206e+00	1.161206e+00	1.161206e+00	1.161206e+00	1.161206e+00	1.161206e+00	1.161206e+00	1.161206e+00	1.671496e+00	1.667121e+00	1.656846e+00	1.643087e+00	1.625009e+00	1.601798e+00	1.572826e+00	1.537869e+00	1.497356e+00	1.452543e+00	1.405517e+00	1.358917e+00	1.315439e+00	1.277413e+00	1.245947e+00	1.221186e+00	1.202551e+00	1.189052e+00	1.179579e+00	1.173106e+00	1.168782e+00	1.165949e+00	1.164126e+00	1.162973e+00	1.162256e+00	1.161818e+00	1.161556e+00	1.161401e+00	1.161313e+00	1.161263e+00	1.161235e+00	1.161220e+00	1.161213e+00	1.161209e+00	1.161207e+00	1.161206e+00	1.161206e+00	1.161206e+00	1.161206e+00	1.161206e+00	1.161206e+00	1.161206e+00	1.161206e+00	1.161206e+00	1.161206e+00	1.161206e+00	1.161206e+00	1.161206e+00	1.161206e+00	1.161206e+00	1.161206e+00	1.161206e+00	1.161206e+00	1.161206e+00	1.161206e+00	1.161206e+00	1.161206e+00	1.161206e+00	1.161206e+00	1.161206e+00	1.161206e+00	1.161206e+00	1.161206e+00	1.161206e+00	1.161206e+00	1.161206e+00	1.161206e+00	1.161206e+00	1.161206e+00	1.161206e+00	1.161206e+00	1.161206e+00	1.161206e+00	1.161206e+00	1.161206e+00	1.678730e+00	1.675701e+00	1.668518e+00	1.658715e+00	1.645543e+00	1.628167e+00	1.605758e+00	1.577640e+00	1.543507e+00	1.503675e+00	1.459276e+00	1.412296e+00	1.365337e+00	1.321143e+00	1.282196e+00	1.249723e+00	1.224008e+00	1.204560e+00	1.190421e+00	1.180477e+00	1.173674e+00	1.169128e+00	1.166153e+00	1.164241e+00	1.163035e+00	1.162288e+00	1.161833e+00	1.161562e+00	1.161403e+00	1.161312e+00	1.161262e+00	1.161234e+00	1.161220e+00	1.