# vtk DataFile Version 3.0
vtk output
ASCII
DATASET UNSTRUCTURED_GRID
POINTS 75 float
1.500000e+00	1.763270e-01	0.0	1.479592e+00	1.727285e-01	0.0	1.459184e+00	1.691300e-01	0.0	1.438776e+00	1.655315e-01	0.0	1.418367e+00	1.619329e-01	0.0	1.397959e+00	1.583344e-01	0.0	1.377551e+00	1.547359e-01	0.0	1.357143e+00	1.511374e-01	0.0	1.336735e+00	1.475389e-01	0.0	1.316327e+00	1.439404e-01	0.0	1.295918e+00	1.403419e-01	0.0	1.275510e+00	1.367434e-01	0.0	1.255102e+00	1.331449e-01	0.0	1.234694e+00	1.295464e-01	0.0	1.214286e+00	1.259478e-01	0.0	1.193878e+00	1.223493e-01	0.0	1.173469e+00	1.187508e-01	0.0	1.153061e+00	1.151523e-01	0.0	1.132653e+00	1.115538e-01	0.0	1.112245e+00	1.079553e-01	0.0	1.091837e+00	1.043568e-01	0.0	1.071429e+00	1.007583e-01	0.0	1.051020e+00	9.715976e-02	0.0	1.030612e+00	9.356126e-02	0.0	1.010204e+00	8.996275e-02	0.0	9.897959e-01	8.636424e-02	0.0	9.693878e-01	8.276573e-02	0.0	9.489796e-01	7.916722e-02	0.0	9.285714e-01	7.556871e-02	0.0	9.081633e-01	7.197020e-02	0.0	8.877551e-01	6.837169e-02	0.0	8.673469e-01	6.477318e-02	0.0	8.469388e-01	6.117467e-02	0.0	8.265306e-01	5.757616e-02	0.0	8.061224e-01	5.397765e-02	0.0	7.857143e-01	5.037914e-02	0.0	7.653061e-01	4.678063e-02	0.0	7.448980e-01	4.318212e-02	0.0	7.244898e-01	3.958361e-02	0.0	7.040816e-01	3.598510e-02	0.0	6.836735e-01	3.238659e-02	0.0	6.632653e-01	2.878808e-02	0.0	6.428571e-01	2.518957e-02	0.0	6.224490e-01	2.159106e-02	0.0	6.020408e-01	1.799255e-02	0.0	5.816327e-01	1.439404e-02	0.0	5.612245e-01	1.079553e-02	0.0	5.408163e-01	7.197020e-03	0.0	5.204082e-01	3.598510e-03	0.0	5.000000e-01	0.000000e+00	0.0	4.800000e-01	0.000000e+00	0.0	4.600000e-01	0.000000e+00	0.0	4.400000e-01	0.000000e+00	0.0	4.200000e-01	0.000000e+00	0.0	4.000000e-01	0.000000e+00	0.0	3.800000e-01	0.000000e+00	0.0	3.600000e-01	0.000000e+00	0.0	3.400000e-01	0.000000e+00	0.0	3.200000e-01	0.000000e+00	0.0	3.000000e-01	0.000000e+00	0.0	2.800000e-01	0.000000e+00	0.0	2.600000e-01	0.000000e+00	0.0	2.400000e-01	0.000000e+00	0.0	2.200000e-01	0.000000e+00	0.0	2.000000e-01	0.000000e+00	0.0	1.800000e-01	0.000000e+00	0.0	1.600000e-01	0.000000e+00	0.0	1.400000e-01	0.000000e+00	0.0	1.200000e-01	0.000000e+00	0.0	1.000000e-01	0.000000e+00	0.0	8.000000e-02	0.000000e+00	0.0	6.000000e-02	0.000000e+00	0.0	4.000000e-02	0.000000e+00	0.0	2.000000e-02	0.000000e+00	0.0	0.000000e+00	0.000000e+00	0.0	
CELLS 74	222
2	74	73	2	73	72	2	72	71	2	71	70	2	70	69	2	69	68	2	68	67	2	67	66	2	66	65	2	65	64	2	64	63	2	63	62	2	62	61	2	61	60	2	60	59	2	59	58	2	58	57	2	57	56	2	56	55	2	55	54	2	54	53	2	53	52	2	52	51	2	51	50	2	50	49	2	49	48	2	48	47	2	47	46	2	46	45	2	45	44	2	44	43	2	43	42	2	42	41	2	41	40	2	40	39	2	39	38	2	38	37	2	37	36	2	36	35	2	35	34	2	34	33	2	33	32	2	32	31	2	31	30	2	30	29	2	29	28	2	28	27	2	27	26	2	26	25	2	25	24	2	24	23	2	23	22	2	22	21	2	21	20	2	20	19	2	19	18	2	18	17	2	17	16	2	16	15	2	15	14	2	14	13	2	13	12	2	12	11	2	11	10	2	10	9	2	9	8	2	8	7	2	7	6	2	6	5	2	5	4	2	4	3	2	3	2	2	2	1	2	1	0	
CELL_TYPES 74
3	3	3	3	3	3	3	3	3	3	3	3	3	3	3	3	3	3	3	3	3	3	3	3	3	3	3	3	3	3	3	3	3	3	3	3	3	3	3	3	3	3	3	3	3	3	3	3	3	3	3	3	3	3	3	3	3	3	3	3	3	3	3	3	3	3	3	3	3	3	3	3	3	3	
POINT_DATA 75

SCALARS Conservative_1 float 1
LOOKUP_TABLE default
1.674568e+00	1.674572e+00	1.674579e+00	1.674588e+00	1.674596e+00	1.674605e+00	1.674614e+00	1.674624e+00	1.674633e+00	1.674643e+00	1.674654e+00	1.674665e+00	1.674676e+00	1.674688e+00	1.674701e+00	1.674714e+00	1.674728e+00	1.674743e+00	1.674758e+00	1.674775e+00	1.674793e+00	1.674812e+00	1.674832e+00	1.674854e+00	1.674877e+00	1.674901e+00	1.674927e+00	1.674956e+00	1.674986e+00	1.675020e+00	1.675056e+00	1.675096e+00	1.675139e+00	1.675186e+00	1.675237e+00	1.675293e+00	1.675359e+00	1.675451e+00	1.675618e+00	1.675967e+00	1.676728e+00	1.678334e+00	1.681506e+00	1.687229e+00	1.696307e+00	1.707692e+00	1.713765e+00	1.689584e+00	1.582111e+00	1.319699e+00	1.161206e+00	1.161206e+00	1.161206e+00	1.161206e+00	1.161206e+00	1.161206e+00	1.161206e+00	1.161206e+00	1.161206e+00	1.161206e+00	1.161206e+00	1.161206e+00	1.161206e+00	1.161206e+00	1.161206e+00	1.161206e+00	1.161206e+00	1.161206e+00	1.161206e+00	1.161206e+00	1.161206e+00	1.161206e+00	1.161206e+00	1.161206e+00	1.161206e+00	
SCALARS Conservative_2 float 1
LOOKUP_TABLE default
1.012595e+03	1.012596e+03	1.012599e+03	1.012602e+03	1.012606e+03	1.012609e+03	1.012612e+03	1.012616e+03	1.012619e+03	1.012623e+03	1.012627e+03	1.012631e+03	1.012635e+03	1.012640e+03	1.012645e+03	1.012650e+03	1.012655e+03	1.012660e+03	1.012666e+03	1.012672e+03	1.012679e+03	1.012686e+03	1.012694e+03	1.012702e+03	1.012710e+03	1.012720e+03	1.012729e+03	1.012740e+03	1.012751e+03	1.012764e+03	1.012777e+03	1.012792e+03	1.012808e+03	1.012826e+03	1.012844e+03	1.012864e+03	1.012887e+03	1.012917e+03	1.012970e+03	1.013087e+03	1.013350e+03	1.013931e+03	1.015124e+03	1.017370e+03	1.021142e+03	1.026430e+03	1.031178e+03	1.027305e+03	9.926991e+02	8.849853e+02	8.075361e+02	8.075361e+02	8.075361e+02	8.075361e+02	8.075361e+02	8.075361e+02	8.075361e+02	8.075361e+02	8.075361e+02	8.075361e+02	8.075361e+02	8.075361e+02	8.075361e+02	8.075361e+02	8.075361e+02	8.075361e+02	8.075361e+02	8.075361e+02	8.075361e+02	8.075361e+02	8.075361e+02	8.075361e+02	8.075361e+02	8.075361e+02	8.075361e+02	
SCALARS Conservative_3 float 1
LOOKUP_TABLE default
1.785488e+02	1.785491e+02	1.785497e+02	1.785502e+02	1.785508e+02	1.785515e+02	1.785521e+02	1.785528e+02	1.785535e+02	1.785542e+02	1.785550e+02	1.785558e+02	1.785566e+02	1.785575e+02	1.785584e+02	1.785594e+02	1.785605e+02	1.785616e+02	1.785628e+02	1.785641e+02	1.785654e+02	1.785669e+02	1.785684e+02	1.785701e+02	1.785718e+02	1.785737e+02	1.785758e+02	1.785780e+02	1.785805e+02	1.785832e+02	1.785862e+02	1.785895e+02	1.785933e+02	1.785979e+02	1.786042e+02	1.786140e+02	1.786315e+02	1.786643e+02	1.787258e+02	1.788346e+02	1.790086e+02	1.792387e+02	1.794187e+02	1.791785e+02	1.775341e+02	1.722368e+02	1.588118e+02	1.301755e+02	8.083534e+01	2.138425e+01	1.190256e-13	4.561674e-14	1.259737e-13	1.536769e-13	2.028789e-13	2.747737e-13	2.630504e-13	1.548582e-13	1.016923e-13	1.140260e-13	9.501988e-14	7.710243e-14	3.702238e-14	9.249020e-14	1.518958e-13	1.081817e-13	-2.170234e-14	-5.676927e-15	-5.193507e-14	-1.835365e-14	5.402434e-15	4.914714e-14	8.912348e-14	3.930302e-14	2.315363e-14	
SCALARS Conservative_4 float 1
LOOKUP_TABLE default
7.426333e+05	7.426349e+05	7.426381e+05	7.426414e+05	7.426448e+05	7.426484e+05	7.426520e+05	7.426558e+05	7.426597e+05	7.426638e+05	7.426680e+05	7.426724e+05	7.426770e+05	7.426818e+05	7.426868e+05	7.426922e+05	7.426978e+05	7.427038e+05	7.427101e+05	7.427168e+05	7.427240e+05	7.427317e+05	7.427398e+05	7.427485e+05	7.427577e+05	7.427676e+05	7.427782e+05	7.427896e+05	7.428019e+05	7.428153e+05	7.428299e+05	7.428460e+05	7.428634e+05	7.428824e+05	7.429029e+05	7.429253e+05	7.429518e+05	7.429892e+05	7.430563e+05	7.431970e+05	7.435035e+05	7.441501e+05	7.454267e+05	7.477283e+05	7.513758e+05	7.559472e+05	7.584111e+05	7.489137e+05	7.055546e+05	5.973897e+05	5.307920e+05	5.307920e+05	5.307920e+05	5.307920e+05	5.307920e+05	5.307920e+05	5.307920e+05	5.307920e+05	5.307920e+05	5.307920e+05	5.307920e+05	5.307920e+05	5.307920e+05	5.307920e+05	5.307920e+05	5.307920e+05	5.307920e+05	5.307920e+05	5.307920e+05	5.307920e+05	5.307920e+05	5.307920e+05	5.307920e+05	5.307920e+05	5.307920e+05	
SCALARS Pressure float 1
LOOKUP_TABLE default
1.707846e+05	1.707851e+05	1.707863e+05	1.707874e+05	1.707887e+05	1.707899e+05	1.707912e+05	1.707925e+05	1.707939e+05	1.707954e+05	1.707969e+05	1.707984e+05	1.708000e+05	1.708017e+05	1.708035e+05	1.708054e+05	1.708074e+05	1.708095e+05	1.708118e+05	1.708142e+05	1.708167e+05	1.708194e+05	1.708223e+05	1.708254e+05	1.708287e+05	1.708322e+05	1.708359e+05	1.708400e+05	1.708444e+05	1.708491e+05	1.708543e+05	1.708600e+05	1.708662e+05	1.708729e+05	1.708802e+05	1.708881e+05	1.708975e+05	1.709108e+05	1.709345e+05	1.709844e+05	1.710931e+05	1.713225e+05	1.717759e+05	1.725943e+05	1.738929e+05	1.755148e+05	1.763285e+05	1.726347e+05	1.568216e+05	1.201930e+05	1.000000e+05	1.000000e+05	1.000000e+05	1.000000e+05	1.000000e+05	1.000000e+05	1.000000e+05	1.000000e+05	1.000000e+05	1.000000e+05	1.000000e+05	1.000000e+05	1.000000e+05	1.000000e+05	1.000000e+05	1.000000e+05	1.000000e+05	1.000000e+05	1.000000e+05	1.000000e+05	1.000000e+05	1.000000e+05	1.000000e+05	1.000000e+05	1.000000e+05	
SCALARS Temperature float 1
LOOKUP_TABLE default
3.552845e+02	3.552848e+02	3.552855e+02	3.552862e+02	3.552869e+02	3.552877e+02	3.552885e+02	3.552892e+02	3.552901e+02	3.552909e+02	3.552918e+02	3.552927e+02	3.552937e+02	3.552947e+02	3.552958e+02	3.552969e+02	3.552981e+02	3.552994e+02	3.553007e+02	3.553021e+02	3.553036e+02	3.553052e+02	3.553069e+02	3.553088e+02	3.553107e+02	3.553128e+02	3.553150e+02	3.553174e+02	3.553200e+02	3.553229e+02	3.553259e+02	3.553293e+02	3.553330e+02	3.553370e+02	3.553413e+02	3.553460e+02	3.553516e+02	3.553595e+02	3.553736e+02	3.554032e+02	3.554677e+02	3.556038e+02	3.558723e+02	3.563551e+02	3.571147e+02	3.580424e+02	3.584275e+02	3.559416e+02	3.453021e+02	3.172741e+02	3.000000e+02	3.000000e+02	3.000000e+02	3.000000e+02	3.000000e+02	3.000000e+02	3.000000e+02	3.000000e+02	3.000000e+02	3.000000e+02	3.000000e+02	3.000000e+02	3.000000e+02	3.000000e+02	3.000000e+02	3.000000e+02	3.000000e+02	3.000000e+02	3.000000e+02	3.000000e+02	3.000000e+02	3.000000e+02	3.000000e+02	3.000000e+02	3.000000e+02	
SCALARS Pressure_Coefficient float 1
LOOKUP_TABLE default
2.528020e-01	2.528040e-01	2.528081e-01	2.528123e-01	2.528166e-01	2.528211e-01	2.528257e-01	2.528305e-01	2.528355e-01	2.528406e-01	2.528459e-01	2.528515e-01	2.528573e-01	2.528634e-01	2.528698e-01	2.528765e-01	2.528837e-01	2.528912e-01	2.528993e-01	2.529078e-01	2.529169e-01	2.529266e-01	2.529369e-01	2.529479e-01	2.529596e-01	2.529721e-01	2.529855e-01	2.529999e-01	2.530155e-01	2.530325e-01	2.530510e-01	2.530713e-01	2.530935e-01	2.531175e-01	2.531435e-01	2.531719e-01	2.532054e-01	2.532528e-01	2.533377e-01	2.535157e-01	2.539039e-01	2.547234e-01	2.563425e-01	2.592655e-01	2.639031e-01	2.696957e-01	2.726016e-01	2.594096e-01	2.029342e-01	7.211774e-02	-5.197113e-17	-4.157690e-16	-4.157690e-16	-2.598556e-16	-5.716824e-16	-4.677401e-16	-2.598556e-16	-1.559134e-16	-3.118268e-16	-2.598556e-16	-3.118268e-16	-3.118268e-16	-6.756246e-16	-8.835091e-16	-6.756246e-16	-4.677401e-16	-6.756246e-16	-8.315380e-16	-9.874514e-16	-1.351249e-15	-1.403220e-15	-1.091394e-15	-5.716824e-16	-4.157690e-16	-4.677401e-16	
SCALARS Mach float 1
LOOKUP_TABLE default
1.624967e+00	1.624965e+00	1.624961e+00	1.624956e+00	1.624951e+00	1.624946e+00	1.624941e+00	1.624936e+00	1.624930e+00	1.624925e+00	1.624919e+00	1.624913e+00	1.624906e+00	1.624900e+00	1.624893e+00	1.624885e+00	1.624877e+00	1.624869e+00	1.624860e+00	1.624851e+00	1.624841e+00	1.624830e+00	1.624819e+00	1.624807e+00	1.624794e+00	1.624780e+00	1.624765e+00	1.624749e+00	1.624732e+00	1.624714e+00	1.624693e+00	1.624671e+00	1.624646e+00	1.624620e+00	1.624591e+00	1.624560e+00	1.624523e+00	1.624471e+00	1.624378e+00	1.624182e+00	1.623756e+00	1.622856e+00	1.621080e+00	1.617886e+00	1.612856e+00	1.606695e+00	1.604069e+00	1.620468e+00	1.689925e+00	1.878546e+00	2.002827e+00	2.002827e+00	2.002827e+00	2.002827e+00	2.002827e+00	2.002827e+00	2.002827e+00	2.002827e+00	2.002827e+00	2.002827e+00	2.002827e+00	2.002827e+00	2.002827e+00	2.002827e+00	2.002827e+00	2.002827e+00	2.002827e+00	2.002827e+00	2.002827e+00	2.002827e+00	2.002827e+00	2.002827e+00	2.002827e+00	2.002827e+00	2.002827e+00	