# vtk DataFile Version 3.0
vtk output
ASCII
DATASET UNSTRUCTURED_GRID
POINTS 3750 float
1.500000e+00	1.000000e+00	0.0	1.479592e+00	1.000000e+00	0.0	1.459184e+00	1.000000e+00	0.0	1.438776e+00	1.000000e+00	0.0	1.418367e+00	1.000000e+00	0.0	1.397959e+00	1.000000e+00	0.0	1.377551e+00	1.000000e+00	0.0	1.357143e+00	1.000000e+00	0.0	1.336735e+00	1.000000e+00	0.0	1.316327e+00	1.000000e+00	0.0	1.295918e+00	1.000000e+00	0.0	1.275510e+00	1.000000e+00	0.0	1.255102e+00	1.000000e+00	0.0	1.234694e+00	1.000000e+00	0.0	1.214286e+00	1.000000e+00	0.0	1.193878e+00	1.000000e+00	0.0	1.173469e+00	1.000000e+00	0.0	1.153061e+00	1.000000e+00	0.0	1.132653e+00	1.000000e+00	0.0	1.112245e+00	1.000000e+00	0.0	1.091837e+00	1.000000e+00	0.0	1.071429e+00	1.000000e+00	0.0	1.051020e+00	1.000000e+00	0.0	1.030612e+00	1.000000e+00	0.0	1.010204e+00	1.000000e+00	0.0	9.897959e-01	1.000000e+00	0.0	9.693878e-01	1.000000e+00	0.0	9.489796e-01	1.000000e+00	0.0	9.285714e-01	1.000000e+00	0.0	9.081633e-01	1.000000e+00	0.0	8.877551e-01	1.000000e+00	0.0	8.673469e-01	1.000000e+00	0.0	8.469388e-01	1.000000e+00	0.0	8.265306e-01	1.000000e+00	0.0	8.061224e-01	1.000000e+00	0.0	7.857143e-01	1.000000e+00	0.0	7.653061e-01	1.000000e+00	0.0	7.448980e-01	1.000000e+00	0.0	7.244898e-01	1.000000e+00	0.0	7.040816e-01	1.000000e+00	0.0	6.836735e-01	1.000000e+00	0.0	6.632653e-01	1.000000e+00	0.0	6.428571e-01	1.000000e+00	0.0	6.224490e-01	1.000000e+00	0.0	6.020408e-01	1.000000e+00	0.0	5.816327e-01	1.000000e+00	0.0	5.612245e-01	1.000000e+00	0.0	5.408163e-01	1.000000e+00	0.0	5.204082e-01	1.000000e+00	0.0	5.000000e-01	1.000000e+00	0.0	4.800000e-01	1.000000e+00	0.0	4.600000e-01	1.000000e+00	0.0	4.400000e-01	1.000000e+00	0.0	4.200000e-01	1.000000e+00	0.0	4.000000e-01	1.000000e+00	0.0	3.800000e-01	1.000000e+00	0.0	3.600000e-01	1.000000e+00	0.0	3.400000e-01	1.000000e+00	0.0	3.200000e-01	1.000000e+00	0.0	3.000000e-01	1.000000e+00	0.0	2.800000e-01	1.000000e+00	0.0	2.600000e-01	1.000000e+00	0.0	2.400000e-01	1.000000e+00	0.0	2.200000e-01	1.000000e+00	0.0	2.000000e-01	1.000000e+00	0.0	1.800000e-01	1.000000e+00	0.0	1.600000e-01	1.000000e+00	0.0	1.400000e-01	1.000000e+00	0.0	1.200000e-01	1.000000e+00	0.0	1.000000e-01	1.000000e+00	0.0	8.000000e-02	1.000000e+00	0.0	6.000000e-02	1.000000e+00	0.0	4.000000e-02	1.000000e+00	0.0	2.000000e-02	1.000000e+00	0.0	0.000000e+00	1.000000e+00	0.0	1.500000e+00	9.831903e-01	0.0	1.479592e+00	9.831169e-01	0.0	1.459184e+00	9.830435e-01	0.0	1.438776e+00	9.829700e-01	0.0	1.418367e+00	9.828966e-01	0.0	1.397959e+00	9.828232e-01	0.0	1.377551e+00	9.827497e-01	0.0	1.357143e+00	9.826763e-01	0.0	1.336735e+00	9.826028e-01	0.0	1.316327e+00	9.825294e-01	0.0	1.295918e+00	9.824560e-01	0.0	1.275510e+00	9.823825e-01	0.0	1.255102e+00	9.823091e-01	0.0	1.234694e+00	9.822356e-01	0.0	1.214286e+00	9.821622e-01	0.0	1.193878e+00	9.820888e-01	0.0	1.173469e+00	9.820153e-01	0.0	1.153061e+00	9.819419e-01	0.0	1.132653e+00	9.818684e-01	0.0	1.112245e+00	9.817950e-01	0.0	1.091837e+00	9.817216e-01	0.0	1.071429e+00	9.816481e-01	0.0	1.051020e+00	9.815747e-01	0.0	1.030612e+00	9.815013e-01	0.0	1.010204e+00	9.814278e-01	0.0	9.897959e-01	9.813544e-01	0.0	9.693878e-01	9.812809e-01	0.0	9.489796e-01	9.812075e-01	0.0	9.285714e-01	9.811341e-01	0.0	9.081633e-01	9.810606e-01	0.0	8.877551e-01	9.809872e-01	0.0	8.673469e-01	9.809137e-01	0.0	8.469388e-01	9.808403e-01	0.0	8.265306e-01	9.807669e-01	0.0	8.061224e-01	9.806934e-01	0.0	7.857143e-01	9.806200e-01	0.0	7.653061e-01	9.805465e-01	0.0	7.448980e-01	9.804731e-01	0.0	7.244898e-01	9.803997e-01	0.0	7.040816e-01	9.803262e-01	0.0	6.836735e-01	9.802528e-01	0.0	6.632653e-01	9.801793e-01	0.0	6.428571e-01	9.801059e-01	0.0	6.224490e-01	9.800325e-01	0.0	6.020408e-01	9.799590e-01	0.0	5.816327e-01	9.798856e-01	0.0	5.612245e-01	9.798122e-01	0.0	5.408163e-01	9.797387e-01	0.0	5.204082e-01	9.796653e-01	0.0	5.000000e-01	9.795918e-01	0.0	4.800000e-01	9.795918e-01	0.0	4.600000e-01	9.795918e-01	0.0	4.400000e-01	9.795918e-01	0.0	4.200000e-01	9.795918e-01	0.0	4.000000e-01	9.795918e-01	0.0	3.800000e-01	9.795918e-01	0.0	3.600000e-01	9.795918e-01	0.0	3.400000e-01	9.795918e-01	0.0	3.200000e-01	9.795918e-01	0.0	3.000000e-01	9.795918e-01	0.0	2.800000e-01	9.795918e-01	0.0	2.600000e-01	9.795918e-01	0.0	2.400000e-01	9.795918e-01	0.0	2.200000e-01	9.795918e-01	0.0	2.000000e-01	9.795918e-01	0.0	1.800000e-01	9.795918e-01	0.0	1.600000e-01	9.795918e-01	0.0	1.400000e-01	9.795918e-01	0.0	1.200000e-01	9.795918e-01	0.0	1.000000e-01	9.795918e-01	0.0	8.000000e-02	9.795918e-01	0.0	6.000000e-02	9.795918e-01	0.0	4.000000e-02	9.795918e-01	0.0	2.000000e-02	9.795918e-01	0.0	0.000000e+00	9.795918e-01	0.0	1.500000e+00	9.663807e-01	0.0	1.479592e+00	9.662338e-01	0.0	1.459184e+00	9.660869e-01	0.0	1.438776e+00	9.659401e-01	0.0	1.418367e+00	9.657932e-01	0.0	1.397959e+00	9.656463e-01	0.0	1.377551e+00	9.654994e-01	0.0	1.357143e+00	9.653525e-01	0.0	1.336735e+00	9.652057e-01	0.0	1.316327e+00	9.650588e-01	0.0	1.295918e+00	9.649119e-01	0.0	1.275510e+00	9.647650e-01	0.0	1.255102e+00	9.646182e-01	0.0	1.234694e+00	9.644713e-01	0.0	1.214286e+00	9.643244e-01	0.0	1.193878e+00	9.641775e-01	0.0	1.173469e+00	9.640306e-01	0.0	1.153061e+00	9.638838e-01	0.0	1.132653e+00	9.637369e-01	0.0	1.112245e+00	9.635900e-01	0.0	1.091837e+00	9.634431e-01	0.0	1.071429e+00	9.632963e-01	0.0	1.051020e+00	9.631494e-01	0.0	1.030612e+00	9.630025e-01	0.0	1.010204e+00	9.628556e-01	0.0	9.897959e-01	9.627087e-01	0.0	9.693878e-01	9.625619e-01	0.0	9.489796e-01	9.624150e-01	0.0	9.285714e-01	9.622681e-01	0.0	9.081633e-01	9.621212e-01	0.0	8.877551e-01	9.619744e-01	0.0	8.673469e-01	9.618275e-01	0.0	8.469388e-01	9.616806e-01	0.0	8.265306e-01	9.615337e-01	0.0	8.061224e-01	9.613868e-01	0.0	7.857143e-01	9.612400e-01	0.0	7.653061e-01	9.610931e-01	0.0	7.448980e-01	9.609462e-01	0.0	7.244898e-01	9.607993e-01	0.0	7.040816e-01	9.606525e-01	0.0	6.836735e-01	9.605056e-01	0.0	6.632653e-01	9.603587e-01	0.0	6.428571e-01	9.602118e-01	0.0	6.224490e-01	9.600649e-01	0.0	6.020408e-01	9.599181e-01	0.0	5.816327e-01	9.597712e-01	0.0	5.612245e-01	9.596243e-01	0.0	5.408163e-01	9.594774e-01	0.0	5.204082e-01	9.593306e-01	0.0	5.000000e-01	9.591837e-01	0.0	4.800000e-01	9.591837e-01	0.0	4.600000e-01	9.591837e-01	0.0	4.400000e-01	9.591837e-01	0.0	4.200000e-01	9.591837e-01	0.0	4.000000e-01	9.591837e-01	0.0	3.800000e-01	9.591837e-01	0.0	3.600000e-01	9.591837e-01	0.0	3.400000e-01	9.591837e-01	0.0	3.200000e-01	9.591837e-01	0.0	3.000000e-01	9.591837e-01	0.0	2.800000e-01	9.591837e-01	0.0	2.600000e-01	9.591837e-01	0.0	2.400000e-01	9.591837e-01	0.0	2.200000e-01	9.591837e-01	0.0	2.000000e-01	9.591837e-01	0.0	1.800000e-01	9.591837e-01	0.0	1.600000e-01	9.591837e-01	0.0	1.400000e-01	9.591837e-01	0.0	1.200000e-01	9.591837e-01	0.0	1.000000e-01	9.591837e-01	0.0	8.000000e-02	9.591837e-01	0.0	6.000000e-02	9.591837e-01	0.0	4.000000e-02	9.591837e-01	0.0	2.000000e-02	9.591837e-01	0.0	0.000000e+00	9.591837e-01	0.0	1.500000e+00	9.495710e-01	0.0	1.479592e+00	9.493507e-01	0.0	1.459184e+00	9.491304e-01	0.0	1.438776e+00	9.489101e-01	0.0	1.418367e+00	9.486898e-01	0.0	1.397959e+00	9.484695e-01	0.0	1.377551e+00	9.482491e-01	0.0	1.357143e+00	9.480288e-01	0.0	1.336735e+00	9.478085e-01	0.0	1.316327e+00	9.475882e-01	0.0	1.295918e+00	9.473679e-01	0.0	1.275510e+00	9.471476e-01	0.0	1.255102e+00	9.469272e-01	0.0	1.234694e+00	9.467069e-01	0.0	1.214286e+00	9.464866e-01	0.0	1.193878e+00	9.462663e-01	0.0	1.173469e+00	9.460460e-01	0.0	1.153061e+00	9.458257e-01	0.0	1.132653e+00	9.456053e-01	0.0	1.112245e+00	9.453850e-01	0.0	1.091837e+00	9.451647e-01	0.0	1.071429e+00	9.449444e-01	0.0	1.051020e+00	9.447241e-01	0.0	1.030612e+00	9.445038e-01	0.0	1.010204e+00	9.442834e-01	0.0	9.897959e-01	9.440631e-01	0.0	9.693878e-01	9.438428e-01	0.0	9.489796e-01	9.436225e-01	0.0	9.285714e-01	9.434022e-01	0.0	9.081633e-01	9.431818e-01	0.0	8.877551e-01	9.429615e-01	0.0	8.673469e-01	9.427412e-01	0.0	8.469388e-01	9.425209e-01	0.0	8.265306e-01	9.423006e-01	0.0	8.061224e-01	9.420803e-01	0.0	7.857143e-01	9.418599e-01	0.0	7.653061e-01	9.416396e-01	0.0	7.448980e-01	9.414193e-01	0.0	7.244898e-01	9.411990e-01	0.0	7.040816e-01	9.409787e-01	0.0	6.836735e-01	9.407584e-01	0.0	6.632653e-01	9.405380e-01	0.0	6.428571e-01	9.403177e-01	0.0	6.224490e-01	9.400974e-01	0.0	6.020408e-01	9.398771e-01	0.0	5.816327e-01	9.396568e-01	0.0	5.612245e-01	9.394365e-01	0.0	5.408163e-01	9.392161e-01	0.0	5.204082e-01	9.389958e-01	0.0	5.000000e-01	9.387755e-01	0.0	4.800000e-01	9.387755e-01	0.0	4.600000e-01	9.387755e-01	0.0	4.400000e-01	9.387755e-01	0.0	4.200000e-01	9.387755e-01	0.0	4.000000e-01	9.387755e-01	0.0	3.800000e-01	9.387755e-01	0.0	3.600000e-01	9.387755e-01	0.0	3.400000e-01	9.387755e-01	0.0	3.200000e-01	9.387755e-01	0.0	3.000000e-01	9.387755e-01	0.0	2.800000e-01	9.387755e-01	0.0	2.600000e-01	9.387755e-01	0.0	2.400000e-01	9.387755e-01	0.0	2.200000e-01	9.387755e-01	0.0	2.000000e-01	9.387755e-01	0.0	1.800000e-01	9.387755e-01	0.0	1.600000e-01	9.387755e-01	0.0	1.400000e-01	9.387755e-01	0.0	1.200000e-01	9.387755e-01	0.0	1.000000e-01	9.387755e-01	0.0	8.000000e-02	9.387755e-01	0.0	6.000000e-02	9.387755e-01	0.0	4.000000e-02	9.387755e-01	0.0	2.000000e-02	9.387755e-01	0.0	0.000000e+00	9.387755e-01	0.0	1.500000e+00	9.327614e-01	0.0	1.479592e+00	9.324676e-01	0.0	1.459184e+00	9.321739e-01	0.0	1.438776e+00	9.318801e-01	0.0	1.418367e+00	9.315864e-01	0.0	1.397959e+00	9.312926e-01	0.0	1.377551e+00	9.309989e-01	0.0	1.357143e+00	9.307051e-01	0.0	1.336735e+00	9.304113e-01	0.0	1.316327e+00	9.301176e-01	0.0	1.295918e+00	9.298238e-01	0.0	1.275510e+00	9.295301e-01	0.0	1.255102e+00	9.292363e-01	0.0	1.234694e+00	9.289426e-01	0.0	1.214286e+00	9.286488e-01	0.0	1.193878e+00	9.283550e-01	0.0	1.173469e+00	9.280613e-01	0.0	1.153061e+00	9.277675e-01	0.0	1.132653e+00	9.274738e-01	0.0	1.112245e+00	9.271800e-01	0.0	1.091837e+00	9.268863e-01	0.0	1.071429e+00	9.265925e-01	0.0	1.051020e+00	9.262988e-01	0.0	1.030612e+00	9.260050e-01	0.0	1.010204e+00	9.257112e-01	0.0	9.897959e-01	9.254175e-01	0.0	9.693878e-01	9.251237e-01	0.0	9.489796e-01	9.248300e-01	0.0	9.285714e-01	9.245362e-01	0.0	9.081633e-01	9.242425e-01	0.0	8.877551e-01
[...]
POINT_DATA 3750

SCALARS Conservative_1 float 1
LOOKUP_TABLE default
1.197091e+00	1.193528e+00	1.185839e+00	1.179578e+00	1.174577e+00	1.170811e+00	1.168038e+00	1.166030e+00	1.164589e+00	1.163565e+00	1.162840e+00	1.162331e+00	1.161976e+00	1.161729e+00	1.161559e+00	1.161443e+00	1.161364e+00	1.161310e+00	1.161274e+00	1.161250e+00	1.161234e+00	1.161224e+00	1.161217e+00	1.161213e+00	1.161210e+00	1.161208e+00	1.161207e+00	1.161207e+00	1.161206e+00	1.161206e+00	1.161206e+00	1.161206e+00	1.161206e+00	1.161206e+00	1.161206e+00	1.161206e+00	1.161206e+00	1.161206e+00	1.161206e+00	1.161206e+00	1.161206e+00	1.161206e+00	1.161206e+00	1.161206e+00	1.161206e+00	1.161206e+00	1.161206e+00	1.161206e+00	1.161206e+00	1.161206e+00	1.161206e+00	1.161206e+00	1.161206e+00	1.161206e+00	1.161206e+00	1.161206e+00	1.161206e+00	1.161206e+00	1.161206e+00	1.161206e+00	1.161206e+00	1.161206e+00	1.161206e+00	1.161206e+00	1.161206e+00	1.161206e+00	1.161206e+00	1.161206e+00	1.161206e+00	1.161206e+00	1.161206e+00	1.161206e+00	1.161206e+00	1.161206e+00	1.161206e+00	1.195319e+00	1.191404e+00	1.184197e+00	1.178416e+00	1.173724e+00	1.170204e+00	1.167607e+00	1.165727e+00	1.164378e+00	1.163418e+00	1.162740e+00	1.162263e+00	1.161929e+00	1.161698e+00	1.161538e+00	1.161429e+00	1.161354e+00	1.161304e+00	1.161270e+00	1.161248e+00	1.161233e+00	1.161223e+00	1.161217e+00	1.161212e+00	1.161210e+00	1.161208e+00	1.161207e+00	1.161207e+00	1.161206e+00	1.161206e+00	1.161206e+00	1.161206e+00	1.161206e+00	1.161206e+00	1.161206e+00	1.161206e+00	1.161206e+00	1.161206e+00	1.161206e+00	1.161206e+00	1.161206e+00	1.161206e+00	1.161206e+00	1.161206e+00	1.161206e+00	1.161206e+00	1.161206e+00	1.161206e+00	1.161206e+00	1.161206e+00	1.161206e+00	1.161206e+00	1.161206e+00	1.161206e+00	1.161206e+00	1.161206e+00	1.161206e+00	1.161206e+00	1.161206e+00	1.161206e+00	1.161206e+00	1.161206e+00	1.161206e+00	1.161206e+00	1.161206e+00	1.161206e+00	1.161206e+00	1.161206e+00	1.161206e+00	1.161206e+00	1.161206e+00	1.161206e+00	1.161206e+00	1.161206e+00	1.161206e+00	1.200731e+00	1.196383e+00	1.188009e+00	1.181310e+00	1.175865e+00	1.171777e+00	1.168753e+00	1.166557e+00	1.164975e+00	1.163845e+00	1.163043e+00	1.162477e+00	1.162080e+00	1.161803e+00	1.161611e+00	1.161479e+00	1.161388e+00	1.161327e+00	1.161286e+00	1.161258e+00	1.161239e+00	1.161227e+00	1.161219e+00	1.161214e+00	1.161211e+00	1.161209e+00	1.161208e+00	1.161207e+00	1.161206e+00	1.161206e+00	1.161206e+00	1.161206e+00	1.161206e+00	1.161206e+00	1.161206e+00	1.161206e+00	1.161206e+00	1.161206e+00	1.161206e+00	1.161206e+00	1.161206e+00	1.161206e+00	1.161206e+00	1.161206e+00	1.161206e+00	1.161206e+00	1.161206e+00	1.161206e+00	1.161206e+00	1.161206e+00	1.161206e+00	1.161206e+00	1.161206e+00	1.161206e+00	1.161206e+00	1.161206e+00	1.161206e+00	1.161206e+00	1.161206e+00	1.161206e+00	1.161206e+00	1.161206e+00	1.161206e+00	1.161206e+00	1.161206e+00	1.161206e+00	1.161206e+00	1.161206e+00	1.161206e+00	1.161206e+00	1.161206e+00	1.161206e+00	1.161206e+00	1.161206e+00	1.161206e+00	1.209225e+00	1.204017e+00	1.193995e+00	1.185919e+00	1.179323e+00	1.174342e+00	1.170636e+00	1.167928e+00	1.165967e+00	1.164558e+00	1.163552e+00	1.162838e+00	1.162334e+00	1.161981e+00	1.161735e+00	1.161564e+00	1.161447e+00	1.161367e+00	1.161312e+00	1.161276e+00	1.161251e+00	1.161235e+00	1.161225e+00	1.161218e+00	1.161213e+00	1.161210e+00	1.161208e+00	1.161207e+00	1.161207e+00	1.161206e+00	1.161206e+00	1.161206e+00	1.161206e+00	1.161206e+00	1.161206e+00	1.161206e+00	1.161206e+00	1.161206e+00	1.161206e+00	1.161206e+00	1.161206e+00	1.161206e+00	1.161206e+00	1.161206e+00	1.161206e+00	1.161206e+00	1.161206e+00	1.161206e+00	1.161206e+00	1.161206e+00	1.161206e+00	1.161206e+00	1.161206e+00	1.161206e+00	1.161206e+00	1.161206e+00	1.161206e+00	1.161206e+00	1.161206e+00	1.161206e+00	1.161206e+00	1.161206e+00	1.161206e+00	1.161206e+00	1.161206e+00	1.161206e+00	1.161206e+00	1.161206e+00	1.161206e+00	1.161206e+00	1.161206e+00	1.161206e+00	1.161206e+00	1.161206e+00	1.161206e+00	1.221496e+00	1.215172e+00	1.202877e+00	1.192829e+00	1.184558e+00	1.178254e+00	1.173525e+00	1.170043e+00	1.167504e+00	1.165666e+00	1.164346e+00	1.163404e+00	1.162734e+00	1.162262e+00	1.161931e+00	1.161700e+00	1.161541e+00	1.161431e+00	1.161356e+00	1.161305e+00	1.161271e+00	1.161248e+00	1.161233e+00	1.161223e+00	1.161217e+00	1.161212e+00	1.161210e+00	1.161208e+00	1.161207e+00	1.161206e+00	1.161206e+00	1.161206e+00	1.161206e+00	1.161206e+00	1.161206e+00	1.161206e+00	1.161206e+00	1.161206e+00	1.161206e+00	1.161206e+00	1.161206e+00	1.161206e+00	1.161206e+00	1.161206e+00	1.161206e+00	1.161206e+00	1.161206e+00	1.161206e+00	1.161206e+00	1.161206e+00	1.161206e+00	1.161206e+00	1.161206e+00	1.161206e+00	1.161206e+00	1.161206e+00	1.161206e+00	1.161206e+00	1.161206e+00	1.161206e+00	1.161206e+00	1.161206e+00	1.161206e+00	1.161206e+00	1.161206e+00	1.161206e+00	1.161206e+00	1.161206e+00	1.161206e+00	1.161206e+00	1.161206e+00	1.161206e+00	1.161206e+00	1.161206e+00	1.161206e+00	1.238070e+00	1.230382e+00	1.215194e+00	1.202529e+00	1.191989e+00	1.183857e+00	1.177697e+00	1.173117e+00	1.169750e+00	1.167295e+00	1.165519e+00	1.164243e+00	1.163331e+00	1.162683e+00	1.162226e+00	1.161906e+00	1.161682e+00	1.161528e+00	1.161422e+00	1.161350e+00	1.161301e+00	1.161268e+00	1.161246e+00	1.161232e+00	1.161222e+00	1.161216e+00	1.161212e+00	1.161210e+00	1.161208e+00	1.161207e+00	1.161206e+00	1.161206e+00	1.161206e+00	1.161206e+00	1.161206e+00	1.161206e+00	1.161206e+00	1.161206e+00	1.161206e+00	1.161206e+00	1.161206e+00	1.161206e+00	1.161206e+00	1.161206e+00	1.161206e+00	1.161206e+00	1.161206e+00	1.161206e+00	1.161206e+00	1.161206e+00	1.161206e+00	1.161206e+00	1.161206e+00	1.161206e+00	1.161206e+00	1.161206e+00	1.161206e+00	1.161206e+00	1.161206e+00	1.161206e+00	1.161206e+00	1.161206e+00	1.161206e+00	1.161206e+00	1.161206e+00	1.161206e+00	1.161206e+00	1.161206e+00	1.161206e+00	1.161206e+00	1.161206e+00	1.161206e+00	1.161206e+00	1.161206e+00	1.161206e+00	1.259388e+00	1.250157e+00	1.231550e+00	1.215618e+00	1.202154e+00	1.191611e+00	1.183525e+00	1.177448e+00	1.172937e+00	1.169621e+00	1.167204e+00	1.165454e+00	1.164196e+00	1.163297e+00	1.162658e+00	1.162208e+00	1.161892e+00	1.161673e+00	1.161521e+00	1.161417e+00	1.161346e+00	1.161298e+00	1.161266e+00	1.161245e+00	1.161231e+00	1.161221e+00	1.161215e+00	1.161212e+00	1.161209e+00	1.161208e+00	1.161207e+00	1.161206e+00	1.161206e+00	1.161206e+00	1.161206e+00	1.161206e+00	1.161206e+00	1.161206e+00	1.161206e+00	1.161206e+00	1.161206e+00	1.161206e+00	1.161206e+00	1.161206e+00	1.161206e+00	1.161206e+00	1.161206e+00	1.161206e+00	1.161206e+00	1.161206e+00	1.161206e+00	1.161206e+00	1.161206e+00	1.161206e+00	1.161206e+00	1.161206e+00	1.161206e+00	1.161206e+00	1.161206e+00	1.161206e+00	1.161206e+00	1.161206e+00	1.161206e+00	1.161206e+00	1.161206e+00	1.161206e+00	1.161206e+00	1.161206e+00	1.161206e+00	1.161206e+00	1.161206e+00	1.161206e+00	1.161206e+00	1.161206e+00	1.161206e+00	1.285663e+00	1.274842e+00	1.252510e+00	1.232741e+00	1.215686e+00	1.202082e+00	1.191493e+00	1.183431e+00	1.177379e+00	1.172888e+00	1.169586e+00	1.167178e+00	1.165434e+00	1.164180e+00	1.163284e+00	1.162648e+00	1.162200e+00	1.161886e+00	1.161667e+00	1.161516e+00	1.161413e+00	1.161343e+00	1.161296e+00	1.161264e+00	1.161243e+00	1.161230e+00	1.161221e+00	1.161215e+00	1.161211e+00	1.161209e+00	1.161208e+00	1.161207e+00	1.161206e+00	1.161206e+00	1.161206e+00	1.161206e+00	1.161206e+00	1.161206e+00	1.161206e+00	1.161206e+00	1.161206e+00	1.161206e+00	1.161206e+00	1.161206e+00	1.161206e+00	1.161206e+00	1.161206e+00	1.161206e+00	1.161206e+00	1.161206e+00	1.161206e+00	1.161206e+00	1.161206e+00	1.161206e+00	1.161206e+00	1.161206e+00	1.161206e+00	1.161206e+00	1.161206e+00	1.161206e+00	1.161206e+00	1.161206e+00	1.161206e+00	1.161206e+00	1.161206e+00	1.161206e+00	1.161206e+00	1.161206e+00	1.161206e+00	1.161206e+00	1.161206e+00	1.161206e+00	1.161206e+00	1.161206e+00	1.161206e+00	1.316719e+00	1.304438e+00	1.278397e+00	1.254470e+00	1.233262e+00	1.215930e+00	1.202195e+00	1.191570e+00	1.183488e+00	1.177423e+00	1.172920e+00	1.169608e+00	1.167191e+00	1.165441e+00	1.164183e+00	1.163284e+00	1.162646e+00	1.162197e+00	1.161882e+00	1.161664e+00	1.161514e+00	1.161411e+00	1.161341e+00	1.161294e+00	1.161263e+00	1.161242e+00	1.161229e+00	1.161220e+00	1.161215e+00	1.161211e+00	1.161209e+00	1.161208e+00	1.161207e+00	1.161206e+00	1.161206e+00	1.161206e+00	1.161206e+00	1.161206e+00	1.161206e+00	1.161206e+00	1.161206e+00	1.161206e+00	1.161206e+00	1.161206e+00	1.161206e+00	1.161206e+00	1.161206e+00	1.161206e+00	1.161206e+00	1.161206e+00	1.161206e+00	1.161206e+00	1.161206e+00	1.161206e+00	1.161206e+00	1.161206e+00	1.161206e+00	1.161206e+00	1.161206e+00	1.161206e+00	1.161206e+00	1.161206e+00	1.161206e+00	1.161206e+00	1.161206e+00	1.161206e+00	1.161206e+00	1.161206e+00	1.161206e+00	1.161206e+00	1.161206e+00	1.161206e+00	1.161206e+00	1.161206e+00	1.161206e+00	1.351896e+00	1.338489e+00	1.309204e+00	1.281174e+00	1.255498e+00	1.233855e+00	1.216311e+00	1.202479e+00	1.191786e+00	1.183652e+00	1.177544e+00	1.173007e+00	1.169668e+00	1.167231e+00	1.165466e+00	1.164197e+00	1.163291e+00	1.162649e+00	1.162197e+00	1.161881e+00	1.161662e+00	1.161512e+00	1.161409e+00	1.161339e+00	1.161293e+00	1.161262e+00	1.161242e+00	1.161228e+00	1.161220e+00	1.161214e+00	1.161211e+00	1.161209e+00	1.161207e+00	1.161207e+00	1.161206e+00	1.161206e+00	1.161206e+00	1.161206e+00	1.161206e+00	1.161206e+00	1.161206e+00	1.161206e+00	1.161206e+00	1.161206e+00	1.161206e+00	1.161206e+00	1.161206e+00	1.161206e+00	1.161206e+00	1.161206e+00	1.161206e+00	1.161206e+00	1.161206e+00	1.161206e+00	1.161206e+00	1.161206e+00	1.161206e+00	1.161206e+00	1.161206e+00	1.161206e+00	1.161206e+00	1.161206e+00	1.161206e+00	1.161206e+00	1.161206e+00	1.161206e+00	1.161206e+00	1.161206e+00	1.161206e+00	1.161206e+00	1.161206e+00	1.161206e+00	1.161206e+00	1.161206e+00	1.161206e+00	1.390035e+00	1.376005e+00	1.344384e+00	1.312776e+00	1.282764e+00	1.256504e+00	1.234560e+00	1.216860e+00	1.202907e+00	1.192116e+00	1.183900e+00	1.177726e+00	1.173136e+00	1.169757e+00	1.167291e+00	1.165505e+00	1.164221e+00	1.163305e+00	1.162656e+00	1.162200e+00	1.161882e+00	1.161661e+00	1.161510e+00	1.161407e+00	1.161338e+00	1.161291e+00	1.161261e+00	1.161241e+00	1.161228e+00	1.161219e+00	1.161214e+00	1.161211e+00	1.161209e+00	1.161207e+00	1.161207e+00	1.161206e+00	1.161206e+00	1.161206e+00	1.161206e+00	1.161206e+00	1.161206e+00	1.161206e+00	1.161206e+00	1.161206e+00	1.161206e+00	1.161206e+00	1.161206e+00	1.161206e+00	1.161206e+00	1.161206e+00	1.161206e+00	1.161206e+00	1.161206e+00	1.161206e+00	1.161206e+00	1.161206e+00	1.161206e+00	1.161206e+00	1.161206e+00	1.161206e+00	1.161206e+00	1.161206e+00	1.161206e+00	1.161206e+00	1.161206e+00	1.161206e+00	1.161206e+00	1.161206e+00	1.161206e+00	1.161206e+00	1.161206e+00	1.161206e+00	1.161206e+00	1.161206e+00	1.161206e+00	1.429610e+00	1.415560e+00	1.382865e+00	1.348704e+00	1.314991e+00	1.284253e+00	1.257597e+00	1.235446e+00	1.217570e+00	1.203466e+00	1.192545e+00	1.184221e+00	1.177960e+00	1.173303e+00	1.169873e+00	1.167369e+00	1.165555e+00	1.164253e+00	1.163324e+00	1.162666e+00	1.162205e+00	1.161883e+00	1.161661e+00	1.161509e+00	1.161406e+00	1.161336e+00	1.161290e+00	1.161260e+00	1.161240e+00	1.161227e+00	1.161219e+00	1.161214e+00	1.161210e+00	1.161208e+00	1.161207e+00	1.161207e+00	1.161206e+00	1.161206e+00	1.161206e+00	1.161206e+00	1.161206e+00	1.161206e+00	1.161206e+00	1.161206e+00	1.161206e+00	1.161206e+00	1.161206e+00	1.161206e+00	1.161206e+00	1.161206e+00	1.161206e+00	1.161206e+00	1.161206e+00	1.161206e+00	1.161206e+00	1.161206e+00	1.161206e+00	1.161206e+00	1.161206e+00	1.161206e+00	1.161206e+00	1.161206e+00	1.161206e+00	1.161206e+00	1.161206e+00	1.161206e+00	1.161206e+00	1.161206e+00	1.161206e+00	1.161206e+00	1.161206e+00	1.161206e+00	1.161206e+00	1.161206e+00	1.161206e+00	1.468946e+00	1.455474e+00	1.423124e+00	1.387813e+00	1.351551e+00	1.317066e+00	1.285846e+00	1.258901e+00	1.236526e+00	1.218442e+00	1.204150e+00	1.193068e+00	1.184611e+00	1.178243e+00	1.173504e+00	1.170012e+00	1.167463e+00	1.165617e+00	1.164291e+00	1.163347e+00	1.162680e+00	1.162212e+00	1.161886e+00	1.161662e+00	1.161508e+00	1.161405e+00	1.161335e+00	1.161289e+00	1.161259e+00	1.161239e+00	1.161226e+00	1.161218e+00	1.161213e+00	1.161210e+00	1.161208e+00	1.161207e+00	1.161206e+00	1.161206e+00	1.161206e+00	1.161206e+00	1.161206e+00	1.161206e+00	1.161206e+00	1.161206e+00	1.161206e+00	1.161206e+00	1.161206e+00	1.161206e+00	1.161206e+00	1.161206e+00	1.161206e+00	1.161206e+00	1.161206e+00	1.161206e+00	1.161206e+00	1.161206e+00	1.161206e+00	1.161206e+00	1.161206e+00	1.161206e+00	1.161206e+00	1.161206e+00	1.161206e+00	1.161206e+00	1.161206e+00	1.161206e+00	1.161206e+00	1.161206e+00	1.161206e+00	1.161206e+00	1.161206e+00	1.161206e+00	1.161206e+00	1.161206e+00	1.161206e+00	1.506478e+00	1.494087e+00	1.463418e+00	1.428517e+00	1.391229e+00	1.354212e+00	1.319218e+00	1.287659e+00	1.260444e+00	1.237811e+00	1.219478e+00	1.204961e+00	1.193686e+00	1.185070e+00	1.178576e+00	1.173740e+00	1.170176e+00	1.167573e+00	1.165689e+00	1.164337e+00	1.163375e+00	1.162696e+00	1.162220e+00	1.161890e+00	1.161663e+00	1.161508e+00	1.161404e+00	1.161334e+00	1.161288e+00	1.161258e+00	1.161238e+00	1.161226e+00	1.161218e+00	1.161213e+00	1.161210e+00	1.161208e+00	1.161207e+00	1.161206e+00	1.161206e+00	1.161206e+00	1.161206e+00	1.161206e+00	1.161206e+00	1.161206e+00	1.161206e+00	1.161206e+00	1.161206e+00	1.161206e+00	1.161206e+00	1.161206e+00	1.161206e+00	1.161206e+00	1.161206e+00	1.161206e+00	1.161206e+00	1.161206e+00	1.161206e+00	1.161206e+00	1.161206e+00	1.161206e+00	1.161206e+00	1.161206e+00	1.161206e+00	1.161206e+00	1.161206e+00	1.161206e+00	1.161206e+00	1.161206e+00	1.161206e+00	1.161206e+00	1.161206e+00	1.161206e+00	1.161206e+00	1.161206e+00	1.161206e+00	1.540953e+00	1.529990e+00	1.502070e+00	1.469045e+00	1.432400e+00	1.394456e+00	1.356987e+00	1.321621e+00	1.289745e+00	1.262242e+00	1.239306e+00	1.220680e+00	1.205900e+00	1.194400e+00	1.185599e+00	1.178960e+00	1.174012e+00	1.170364e+00	1.167700e+00	1.165773e+00	1.164391e+00	1.163408e+00	1.162715e+00	1.162230e+00	1.161895e+00	1.161665e+00	1.161508e+00	1.161403e+00	1.161333e+00	1.161287e+00	1.161257e+00	1.161238e+00	1.161225e+00	1.161218e+00	1.161213e+00	1.161210e+00	1.161208e+00	1.161207e+00	1.161206e+00	1.161206e+00	1.161206e+00	1.161206e+00	1.161206e+00	1.161206e+00	1.161206e+00	1.161206e+00	1.161206e+00	1.161206e+00	1.161206e+00	1.161206e+00	1.161206e+00	1.161206e+00	1.161206e+00	1.161206e+00	1.161206e+00	1.161206e+00	1.161206e+00	1.161206e+00	1.161206e+00	1.161206e+00	1.161206e+00	1.161206e+00	1.161206e+00	1.161206e+00	1.161206e+00	1.161206e+00	1.161206e+00	1.161206e+00	1.161206e+00	1.161206e+00	1.161206e+00	1.161206e+00	1.161206e+00	1.161206e+00	1.161206e+00	1.571538e+00	1.562175e+00	1.537691e+00	1.507695e+00	1.473221e+00	1.436079e+00	1.397809e+00	1.360046e+00	1.324346e+00	1.292143e+00	1.264308e+00	1.241020e+00	1.222056e+00	1.206973e+00	1.195214e+00	1.186203e+00	1.179397e+00	1.174321e+00	1.170578e+00	1.167845e+00	1.165868e+00	1.164451e+00	1.163445e+00	1.162737e+00	1.162242e+00	1.161901e+00	1.161667e+00	1.161508e+00	1.161402e+00	1.161332e+00	1.161286e+00	1.161256e+00	1.161237e+00	1.161225e+00	1.161217e+00	1.161212e+00	1.161210e+00	1.161208e+00	1.161207e+00	1.161206e+00	1.161206e+00	1.161206e+00	1.161206e+00	1.161206e+00	1.161206e+00	1.161206e+00	1.161206e+00	1.161206e+00	1.161206e+00	1.161206e+00	1.161206e+00	1.161206e+00	1.161206e+00	1.161206e+00	1.161206e+00	1.161206e+00	1.161206e+00	1.161206e+00	1.161206e+00	1.161206e+00	1.161206e+00	1.161206e+00	1.161206e+00	1.161206e+00	1.161206e+00	1.161206e+00	1.161206e+00	1.161206e+00	1.161206e+00	1.161206e+00	1.161206e+00	1.161206e+00	1.161206e+00	1.161206e+00	1.161206e+00	1.597832e+00	1.590087e+00	1.569334e+00	1.543098e+00	1.511971e+00	1.477189e+00	1.439887e+00	1.401458e+00	1.363456e+00	1.327438e+00	1.294873e+00	1.266654e+00	1.242963e+00	1.223614e+00	1.208186e+00	1.196135e+00	1.186884e+00	1.179890e+00	1.174670e+00	1.170819e+00	1.168008e+00	1.165975e+00	1.164520e+00	1.163487e+00	1.162761e+00	1.162256e+00	1.161907e+00	1.161669e+00	1.161509e+00	1.161402e+00	1.161331e+00	1.161285e+00	1.161255e+00	1.161236e+00	1.161224e+00	1.161217e+00	1.161212e+00	1.161209e+00	1.161208e+00	1.161207e+00	1.161206e+00	1.161206e+00	1.161206e+00	1.161206e+00	1.161206e+00	1.161206e+00	1.161206e+00	1.161206e+00	1.161206e+00	1.161206e+00	1.161206e+00	1.161206e+00	1.161206e+00	1.161206e+00	1.161206e+00	1.161206e+00	1.161206e+00	1.161206e+00	1.161206e+00	1.161206e+00	1.161206e+00	1.161206e+00	1.161206e+00	1.161206e+00	1.161206e+00	1.161206e+00	1.161206e+00	1.161206e+00	1.161206e+00	1.161206e+00	1.161206e+00	1.161206e+00	1.161206e+00	1.161206e+00	1.161206e+00	1.619808e+00	1.613583e+00	1.596527e+00	1.574353e+00	1.547290e+00	1.516044e+00	1.481282e+00	1.443989e+00	1.405462e+00	1.367223e+00	1.330889e+00	1.297943e+00	1.269291e+00	1.245148e+00	1.225366e+00	1.209549e+00	1.197168e+00	1.187649e+00	1.180443e+00	1.175061e+00	1.171089e+00	1.168190e+00	1.166095e+00	1.164596e+00	1.163534e+00	1.162789e+00	1.162271e+00	1.161915e+00	1.161672e+00	1.161509e+00	1.161401e+00	1.161330e+00	1.161283e+00	1.161254e+00	1.161235e+00	1.161223e+00	1.161216e+00	1.161212e+00	1.161209e+00	1.161208e+00	1.161207e+00	1.161206e+00	1.161206e+00	1.161206e+00	1.161206e+00	1.161206e+00	1.161206e+00	1.161206e+00	1.161206e+00	1.161206e+00	1.161206e+00	1.161206e+00	1.161206e+00	1.161206e+00	1.161206e+00	1.161206e+00	1.161206e+00	1.161206e+00	1.161206e+00	1.161206e+00	1.161206e+00	1.161206e+00	1.161206e+00	1.161206e+00	1.161206e+00	1.161206e+00	1.161206e+00	1.161206e+00	1.161206e+00	1.161206e+00	1.161206e+00	1.161206e+00	1.161206e+00	1.161206e+00	1.161206e+00	1.637711e+00	1.632839e+00	1.619207e+00	1.601039e+00	1.578306e+00	1.551289e+00	1.520231e+00	1.485659e+00	1.448455e+00	1.409865e+00	1.371394e+00	1.334723e+00	1.301369e+00	1.272235e+00	1.247587e+00	1.227322e+00	1.211072e+00	1.198322e+00	1.188502e+00	1.181059e+00	1.175496e+00	1.171389e+00	1.168392e+00	1.166227e+00	1.164680e+00	1.163586e+00	1.162819e+00	1.162287e+00	1.161923e+00	1.161676e+00	1.161510e+00	1.161400e+00	1.161329e+00	1.161282e+00	1.161253e+00	1.161234e+00	1.161223e+00	1.161216e+00	1.161211e+00	1.161209e+00	1.161207e+00	1.161207e+00	1.161206e+00	1.161206e+00	1.161206e+00	1.161206e+00	1.161206e+00	1.161206e+00	1.161206e+00	1.161206e+00	1.161206e+00	1.161206e+00	1.161206e+00	1.161206e+00	1.161206e+00	1.161206e+00	1.161206e+00	1.161206e+00	1.161206e+00	1.161206e+00	1.161206e+00	1.161206e+00	1.161206e+00	1.161206e+00	1.161206e+00	1.161206e+00	1.161206e+00	1.161206e+00	1.161206e+00	1.161206e+00	1.161206e+00	1.161206e+00	1.161206e+00	1.161206e+00	1.161206e+00	1.651958e+00	1.648237e+00	1.637616e+00	1.623143e+00	1.604631e+00	1.582068e+00	1.555371e+00	1.524662e+00	1.490369e+00	1.453308e+00	1.414683e+00	1.375986e+00	1.338966e+00	1.305168e+00	1.275503e+00	1.250297e+00	1.229496e+00	1.212766e+00	1.199606e+00	1.189451e+00	1.181744e+00	1.175979e+00	1.171722e+00	1.168616e+00	1.166374e+00	1.164773e+00	1.163642e+00	1.162852e+00	1.162305e+00	1.161932e+00	1.161679e+00	1.161511e+00	1.161400e+00	1.161327e+00	1.161281e+00	1.161252e+00	1.161233e+00	1.161222e+00	1.161215e+00	1.161211e+00	1.161209e+00	1.161207e+00	1.161207e+00	1.161206e+00	1.161206e+00	1.161206e+00	1.161206e+00	1.161206e+00	1.161206e+00	1.161206e+00	1.161206e+00	1.161206e+00	1.161206e+00	1.161206e+00	1.161206e+00	1.161206e+00	1.161206e+00	1.161206e+00	1.161206e+00	1.161206e+00	1.161206e+00	1.161206e+00	1.161206e+00	1.161206e+00	1.161206e+00	1.161206e+00	1.161206e+00	1.161206e+00	1.161206e+00	1.161206e+00	1.161206e+00	1.161206e+00	1.161206e+00	1.161206e+00	1.161206e+00	1.663049e+00	1.660273e+00	1.652193e+00	1.640957e+00	1.626302e+00	1.608040e+00	1.585882e+00	1.559650e+00	1.529377e+00	1.495427e+00	1.458557e+00	1.419927e+00	1.381016e+00	1.343636e+00	1.309357e+00	1.279113e+00	1.253296e+00	1.231906e+00	1.214644e+00	1.201030e+00	1.190504e+00	1.182504e+00	1.176514e+00	1.172090e+00	1.168862e+00	1.166534e+00	1.164875e+00	1.163704e+00	1.162887e+00	1.162325e+00	1.161941e+00	1.161683e+00	1.161511e+00	1.