# vtk DataFile Version 3.0
vtk output
ASCII
DATASET UNSTRUCTURED_GRID
POINTS 75 float
1.500000e+00	1.763270e-01	0.0	1.479592e+00	1.727285e-01	0.0	1.459184e+00	1.691300e-01	0.0	1.438776e+00	1.655315e-01	0.0	1.418367e+00	1.619329e-01	0.0	1.397959e+00	1.583344e-01	0.0	1.377551e+00	1.547359e-01	0.0	1.357143e+00	1.511374e-01	0.0	1.336735e+00	1.475389e-01	0.0	1.316327e+00	1.439404e-01	0.0	1.295918e+00	1.403419e-01	0.0	1.275510e+00	1.367434e-01	0.0	1.255102e+00	1.331449e-01	0.0	1.234694e+00	1.295464e-01	0.0	1.214286e+00	1.259478e-01	0.0	1.193878e+00	1.223493e-01	0.0	1.173469e+00	1.187508e-01	0.0	1.153061e+00	1.151523e-01	0.0	1.132653e+00	1.115538e-01	0.0	1.112245e+00	1.079553e-01	0.0	1.091837e+00	1.043568e-01	0.0	1.071429e+00	1.007583e-01	0.0	1.051020e+00	9.715976e-02	0.0	1.030612e+00	9.356126e-02	0.0	1.010204e+00	8.996275e-02	0.0	9.897959e-01	8.636424e-02	0.0	9.693878e-01	8.276573e-02	0.0	9.489796e-01	7.916722e-02	0.0	9.285714e-01	7.556871e-02	0.0	9.081633e-01	7.197020e-02	0.0	8.877551e-01	6.837169e-02	0.0	8.673469e-01	6.477318e-02	0.0	8.469388e-01	6.117467e-02	0.0	8.265306e-01	5.757616e-02	0.0	8.061224e-01	5.397765e-02	0.0	7.857143e-01	5.037914e-02	0.0	7.653061e-01	4.678063e-02	0.0	7.448980e-01	4.318212e-02	0.0	7.244898e-01	3.958361e-02	0.0	7.040816e-01	3.598510e-02	0.0	6.836735e-01	3.238659e-02	0.0	6.632653e-01	2.878808e-02	0.0	6.428571e-01	2.518957e-02	0.0	6.224490e-01	2.159106e-02	0.0	6.020408e-01	1.799255e-02	0.0	5.816327e-01	1.439404e-02	0.0	5.612245e-01	1.079553e-02	0.0	5.408163e-01	7.197020e-03	0.0	5.204082e-01	3.598510e-03	0.0	5.000000e-01	0.000000e+00	0.0	4.800000e-01	0.000000e+00	0.0	4.600000e-01	0.000000e+00	0.0	4.400000e-01	0.000000e+00	0.0	4.200000e-01	0.000000e+00	0.0	4.000000e-01	0.000000e+00	0.0	3.800000e-01	0.000000e+00	0.0	3.600000e-01	0.000000e+00	0.0	3.400000e-01	0.000000e+00	0.0	3.200000e-01	0.000000e+00	0.0	3.000000e-01	0.000000e+00	0.0	2.800000e-01	0.000000e+00	0.0	2.600000e-01	0.000000e+00	0.0	2.400000e-01	0.000000e+00	0.0	2.200000e-01	0.000000e+00	0.0	2.000000e-01	0.000000e+00	0.0	1.800000e-01	0.000000e+00	0.0	1.600000e-01	0.000000e+00	0.0	1.400000e-01	0.000000e+00	0.0	1.200000e-01	0.000000e+00	0.0	1.000000e-01	0.000000e+00	0.0	8.000000e-02	0.000000e+00	0.0	6.000000e-02	0.000000e+00	0.0	4.000000e-02	0.000000e+00	0.0	2.000000e-02	0.000000e+00	0.0	0.000000e+00	0.000000e+00	0.0	
CELLS 74	222
2	74	73	2	73	72	2	72	71	2	71	70	2	70	69	2	69	68	2	68	67	2	67	66	2	66	65	2	65	64	2	64	63	2	63	62	2	62	61	2	61	60	2	60	59	2	59	58	2	58	57	2	57	56	2	56	55	2	55	54	2	54	53	2	53	52	2	52	51	2	51	50	2	50	49	2	49	48	2	48	47	2	47	46	2	46	45	2	45	44	2	44	43	2	43	42	2	42	41	2	41	40	2	40	39	2	39	38	2	38	37	2	37	36	2	36	35	2	35	34	2	34	33	2	33	32	2	32	31	2	31	30	2	30	29	2	29	28	2	28	27	2	27	26	2	26	25	2	25	24	2	24	23	2	23	22	2	22	21	2	21	20	2	20	19	2	19	18	2	18	17	2	17	16	2	16	15	2	15	14	2	14	13	2	13	12	2	12	11	2	11	10	2	10	9	2	9	8	2	8	7	2	7	6	2	6	5	2	5	4	2	4	3	2	3	2	2	2	1	2	1	0	
CELL_TYPES 74
3	3	3	3	3	3	3	3	3	3	3	3	3	3	3	3	3	3	3	3	3	3	3	3	3	3	3	3	3	3	3	3	3	3	3	3	3	3	3	3	3	3	3	3	3	3	3	3	3	3	3	3	3	3	3	3	3	3	3	3	3	3	3	3	3	3	3	3	3	3	3	3	3	3	
POINT_DATA 75

SCALARS Conservative_1 float 1
LOOKUP_TABLE default
1.693848e+00	1.693890e+00	1.693961e+00	1.694027e+00	1.694097e+00	1.694169e+00	1.694246e+00	1.694325e+00	1.694408e+00	1.694495e+00	1.694587e+00	1.694683e+00	1.694783e+00	1.694889e+00	1.695001e+00	1.695120e+00	1.695245e+00	1.695377e+00	1.695518e+00	1.695668e+00	1.695828e+00	1.695998e+00	1.696182e+00	1.696378e+00	1.696590e+00	1.696819e+00	1.697066e+00	1.697332e+00	1.697620e+00	1.697929e+00	1.698260e+00	1.698613e+00	1.698991e+00	1.699403e+00	1.699871e+00	1.700449e+00	1.701241e+00	1.702436e+00	1.704346e+00	1.707440e+00	1.712343e+00	1.719742e+00	1.730086e+00	1.742907e+00	1.755650e+00	1.761978e+00	1.749536e+00	1.698071e+00	1.578916e+00	1.355258e+00	1.199883e+00	1.176605e+00	1.166365e+00	1.162986e+00	1.161812e+00	1.161414e+00	1.161277e+00	1.161230e+00	1.161214e+00	1.161208e+00	1.161207e+00	1.161206e+00	1.161206e+00	1.161206e+00	1.161206e+00	1.161206e+00	1.161206e+00	1.161206e+00	1.161206e+00	1.161206e+00	1.161206e+00	1.161206e+00	1.161206e+00	1.161206e+00	1.161206e+00	
SCALARS Conservative_2 float 1
LOOKUP_TABLE default
1.028913e+03	1.028959e+03	1.029033e+03	1.029105e+03	1.029180e+03	1.029258e+03	1.029341e+03	1.029427e+03	1.029518e+03	1.029613e+03	1.029713e+03	1.029819e+03	1.029930e+03	1.030048e+03	1.030172e+03	1.030304e+03	1.030443e+03	1.030592e+03	1.030750e+03	1.030919e+03	1.031100e+03	1.031294e+03	1.031502e+03	1.031726e+03	1.031969e+03	1.032231e+03	1.032517e+03	1.032827e+03	1.033165e+03	1.033533e+03	1.033935e+03	1.034376e+03	1.034862e+03	1.035405e+03	1.036028e+03	1.036776e+03	1.037726e+03	1.039013e+03	1.040848e+03	1.043544e+03	1.047514e+03	1.053218e+03	1.060991e+03	1.070665e+03	1.080929e+03	1.088402e+03	1.086373e+03	1.063642e+03	1.003890e+03	8.853797e+02	8.101469e+02	8.106165e+02	8.085418e+02	8.079045e+02	8.076613e+02	8.075798e+02	8.075511e+02	8.075413e+02	8.075379e+02	8.075367e+02	8.075363e+02	8.075362e+02	8.075361e+02	8.075361e+02	8.075361e+02	8.075361e+02	8.075361e+02	8.075361e+02	8.075361e+02	8.075361e+02	8.075361e+02	8.075361e+02	8.075361e+02	8.075361e+02	8.075361e+02	
SCALARS Conservative_3 float 1
LOOKUP_TABLE default
1.814395e+02	1.814461e+02	1.814597e+02	1.814730e+02	1.814870e+02	1.815017e+02	1.815170e+02	1.815331e+02	1.815501e+02	1.815679e+02	1.815867e+02	1.816065e+02	1.816274e+02	1.816496e+02	1.816731e+02	1.816980e+02	1.817245e+02	1.817528e+02	1.817830e+02	1.818153e+02	1.818500e+02	1.818873e+02	1.819275e+02	1.819709e+02	1.820179e+02	1.820688e+02	1.821240e+02	1.821841e+02	1.822495e+02	1.823212e+02	1.824006e+02	1.824906e+02	1.825964e+02	1.827267e+02	1.828966e+02	1.831291e+02	1.834569e+02	1.839208e+02	1.845603e+02	1.853901e+02	1.863490e+02	1.872059e+02	1.874035e+02	1.858378e+02	1.806381e+02	1.691135e+02	1.481558e+02	1.156689e+02	7.332810e+01	2.990396e+01	7.076019e+00	1.927048e+00	5.872790e-01	1.887475e-01	6.267454e-02	2.101397e-02	7.124011e-03	2.423718e-03	8.286362e-04	2.838508e-04	9.747469e-05	3.351331e-05	1.153813e-05	3.975515e-06	1.370882e-06	4.729692e-07	1.632616e-07	5.637632e-08	1.947493e-08	6.730359e-09	2.327457e-09	8.054281e-10	2.780040e-10	9.261879e-11	2.999077e-11	
SCALARS Conservative_4 float 1
LOOKUP_TABLE default
7.493022e+05	7.493244e+05	7.493611e+05	7.493960e+05	7.494328e+05	7.494712e+05	7.495113e+05	7.495533e+05	7.495973e+05	7.496435e+05	7.496919e+05	7.497428e+05	7.497964e+05	7.498529e+05	7.499126e+05	7.499756e+05	7.500424e+05	7.501133e+05	7.501887e+05	7.502690e+05	7.503548e+05	7.504466e+05	7.505451e+05	7.506510e+05	7.507652e+05	7.508887e+05	7.510222e+05	7.511669e+05	7.513236e+05	7.514930e+05	7.516758e+05	7.518730e+05	7.520867e+05	7.523224e+05	7.525923e+05	7.529223e+05	7.533619e+05	7.539986e+05	7.549747e+05	7.565012e+05	7.588568e+05	7.623437e+05	7.671519e+05	7.730638e+05	7.789475e+05	7.820398e+05	7.770084e+05	7.551817e+05	7.043139e+05	6.085855e+05	5.437224e+05	5.363228e+05	5.326382e+05	5.314333e+05	5.310104e+05	5.308672e+05	5.308178e+05	5.308009e+05	5.307951e+05	5.307931e+05	5.307924e+05	5.307922e+05	5.307921e+05	5.307921e+05	5.307920e+05	5.307920e+05	5.307920e+05	5.307920e+05	5.307920e+05	5.307920e+05	5.307920e+05	5.307920e+05	5.307920e+05	5.307920e+05	5.307920e+05	
SCALARS Pressure float 1
LOOKUP_TABLE default
1.708330e+05	1.708336e+05	1.708351e+05	1.708361e+05	1.708373e+05	1.708385e+05	1.708396e+05	1.708408e+05	1.708420e+05	1.708432e+05	1.708443e+05	1.708455e+05	1.708467e+05	1.708478e+05	1.708490e+05	1.708501e+05	1.708512e+05	1.708524e+05	1.708535e+05	1.708545e+05	1.708556e+05	1.708566e+05	1.708576e+05	1.708585e+05	1.708594e+05	1.708601e+05	1.708606e+05	1.708608e+05	1.708604e+05	1.708590e+05	1.708560e+05	1.708507e+05	1.708423e+05	1.708301e+05	1.708147e+05	1.707987e+05	1.707893e+05	1.708017e+05	1.708631e+05	1.710171e+05	1.713248e+05	1.718576e+05	1.726683e+05	1.737209e+05	1.747594e+05	1.751050e+05	1.733777e+05	1.672475e+05	1.533878e+05	1.276199e+05	1.080803e+05	1.028343e+05	1.009565e+05	1.003261e+05	1.001112e+05	1.000381e+05	1.000131e+05	1.000045e+05	1.000015e+05	1.000005e+05	1.000002e+05	1.000001e+05	1.000000e+05	1.000000e+05	1.000000e+05	1.000000e+05	1.000000e+05	1.000000e+05	1.000000e+05	1.000000e+05	1.000000e+05	1.000000e+05	1.000000e+05	1.000000e+05	1.000000e+05	
SCALARS Temperature float 1
LOOKUP_TABLE default
3.513400e+02	3.513325e+02	3.513210e+02	3.513095e+02	3.512973e+02	3.512846e+02	3.512712e+02	3.512572e+02	3.512424e+02	3.512267e+02	3.512102e+02	3.511927e+02	3.511742e+02	3.511546e+02	3.511338e+02	3.511117e+02	3.510881e+02	3.510629e+02	3.510360e+02	3.510072e+02	3.509763e+02	3.509431e+02	3.509072e+02	3.508684e+02	3.508263e+02	3.507806e+02	3.507306e+02	3.506759e+02	3.506156e+02	3.505489e+02	3.504744e+02	3.503907e+02	3.502954e+02	3.501857e+02	3.500576e+02	3.499058e+02	3.497237e+02	3.495036e+02	3.492375e+02	3.489189e+02	3.485459e+02	3.481255e+02	3.476764e+02	3.472229e+02	3.467632e+02	3.462010e+02	3.452237e+02	3.431105e+02	3.384246e+02	3.280400e+02	3.137891e+02	3.044654e+02	3.015299e+02	3.005175e+02	3.001767e+02	3.000603e+02	3.000207e+02	3.000071e+02	3.000024e+02	3.000008e+02	3.000003e+02	3.000001e+02	3.000000e+02	3.000000e+02	3.000000e+02	3.000000e+02	3.000000e+02	3.000000e+02	3.000000e+02	3.000000e+02	3.000000e+02	3.000000e+02	3.000000e+02	3.000000e+02	3.000000e+02	
SCALARS Pressure_Coefficient float 1
LOOKUP_TABLE default
2.529750e-01	2.529771e-01	2.529824e-01	2.529862e-01	2.529903e-01	2.529945e-01	2.529987e-01	2.530029e-01	2.530071e-01	2.530113e-01	2.530154e-01	2.530196e-01	2.530238e-01	2.530279e-01	2.530320e-01	2.530361e-01	2.530401e-01	2.530441e-01	2.530480e-01	2.530519e-01	2.530556e-01	2.530593e-01	2.530628e-01	2.530661e-01	2.530692e-01	2.530718e-01	2.530737e-01	2.530743e-01	2.530728e-01	2.530678e-01	2.530571e-01	2.530382e-01	2.530081e-01	2.529647e-01	2.529096e-01	2.528524e-01	2.528189e-01	2.528633e-01	2.530826e-01	2.536325e-01	2.547315e-01	2.566344e-01	2.595295e-01	2.632890e-01	2.669978e-01	2.682321e-01	2.620632e-01	2.401695e-01	1.906706e-01	9.864244e-02	2.885819e-02	1.012264e-02	3.416232e-03	1.164815e-03	3.970735e-04	1.359803e-04	4.662406e-05	1.602477e-05	5.512991e-06	1.899103e-06	6.546301e-07	2.258227e-07	7.793529e-08	2.690903e-08	9.293855e-09	3.210852e-09	1.109530e-09	3.834835e-10	1.325678e-10	4.584072e-11	1.586154e-11	5.499948e-12	1.921528e-12	6.890332e-13	3.244038e-13	
SCALARS Mach float 1
LOOKUP_TABLE default
1.641501e+00	1.641551e+00	1.641628e+00	1.641705e+00	1.641786e+00	1.641870e+00	1.641960e+00	1.642053e+00	1.642152e+00	1.642257e+00	1.642367e+00	1.642483e+00	1.642607e+00	1.642738e+00	1.642877e+00	1.643024e+00	1.643182e+00	1.643350e+00	1.643529e+00	1.643721e+00	1.643928e+00	1.644150e+00	1.644389e+00	1.644648e+00	1.644929e+00	1.645234e+00	1.645568e+00	1.645933e+00	1.646336e+00	1.646782e+00	1.647279e+00	1.647839e+00	1.648475e+00	1.649208e+00	1.650065e+00	1.651080e+00	1.652297e+00	1.653770e+00	1.655550e+00	1.657684e+00	1.660183e+00	1.663002e+00	1.666015e+00	1.669060e+00	1.672149e+00	1.675930e+00	1.682512e+00	1.696785e+00	1.728633e+00	1.800292e+00	1.901400e+00	1.969556e+00	1.991380e+00	1.998949e+00	2.001502e+00	2.002374e+00	2.002672e+00	2.002773e+00	2.002808e+00	2.002820e+00	2.002825e+00	2.002826e+00	2.002826e+00	2.002827e+00	2.002827e+00	2.002827e+00	2.002827e+00	2.002827e+00	2.002827e+00	2.002827e+00	2.002827e+00	2.002827e+00	2.002827e+00	2.002827e+00	2.002827e+00	